# vtk DataFile Version 2.0
sampleSurface
ASCII
DATASET POLYDATA
POINTS 28107 float
-1324.36 -1350.27 1.5 -1424.05 -1350.27 1.5 -1424.05 -1421.34 1.5 -1324.36 -1421.34
1.5 -1224.68 -1350.27 1.5 -1224.68 -1421.34 1.5 -1125 -1350.27 1.5
-1125 -1421.34 1.5 -1025.31 -1350.27 1.5 -1025.31 -1421.34 1.5 -925.631
-1350.27 1.5 -925.631 -1421.34 1.5 -825.947 -1350.27 1.5 -825.947 -1421.34
1.5 -726.264 -1350.27 1.5 -726.264 -1421.34 1.5 -626.581 -1350.27 1.5
-626.581 -1421.34 1.5 -526.898 -1350.27 1.5 -526.898 -1421.34 1.5 -427.214
-1350.27 1.5 -427.214 -1421.34 1.5 -327.531 -1350.27 1.5 -327.531 -1421.34
1.5 -227.848 -1350.27 1.5 -227.848 -1421.34 1.5 -128.164 -1350.27 1.5
-128.164 -1421.34 1.5 -28.4812 -1350.27 1.5 -28.4811 -1421.34 1.5 71.2021
-1350.27 1.5 71.2021 -1421.34 1.5 170.885 -1350.27 1.5 170.885 -1421.34
1.5 270.569 -1350.27 1.5 270.569 -1421.34 1.5 370.252 -1350.27 1.5
370.252 -1421.34 1.5 469.935 -1350.27 1.5 469.935 -1421.34 1.5 569.619
-1350.27 1.5 569.619 -1421.34 1.5 669.302 -1350.27 1.5 669.302 -1421.34
1.5 768.985 -1350.27 1.5 768.985 -1421.34 1.5 868.669 -1350.27 1.5
868.669 -1421.34 1.5 968.352 -1350.27 1.5 968.352 -1421.34 1.5 1068.04
-1350.27 1.5 1068.04 -1421.34 1.5 1167.72 -1350.27 1.5 1167.72 -1421.34
1.5 1267.4 -1350.27 1.5 1267.4 -1421.34 1.5 1367.09 -1350.27 1.5
1367.09 -1421.34 1.5 1466.77 -1350.27 1.5 1466.77 -1421.34 1.5 1566.45
-1350.27 1.5 1566.45 -1421.34 1.5 1666.14 -1350.27 1.5 1666.14 -1421.34
1.5 1765.82 -1350.27 1.5 1765.82 -1421.34 1.5 1865.5 -1350.27 1.5
1865.5 -1421.34 1.5 1965.19 -1350.27 1.5 1965.19 -1421.34 1.5 2064.87
-1350.27 1.5 2064.87 -1421.34 1.5 2164.55 -1350.27 1.5 2164.55 -1421.34
1.5 2264.24 -1350.27 1.5 2264.24 -1421.34 1.5 2363.92 -1350.27 1.5
2363.92 -1421.34 1.5 2463.6 -1350.27 1.5 2463.6 -1421.34 1.5 2563.29
-1350.27 1.5 2563.29 -1421.34 1.5 2662.97 -1350.27 1.5 2662.97 -1421.34
1.5 2762.65 -1350.27 1.5 2762.65 -1421.34 1.5 2862.34 -1350.27 1.5
2862.34 -1421.34 1.5 2962.02 -1350.27 1.5 2962.02 -1421.34 1.5 3061.7
-1350.27 1.5 3061.7 -1421.34 1.5 3161.39 -1350.27 1.5 3161.39 -1421.34
1.5 3261.07 -1350.27 1.5 3261.07 -1421.34 1.5 3360.75 -1350.27 1.5
3360.75 -1421.34 1.5 3460.44 -1350.27 1.5 3460.44 -1421.34 1.5 3560.12
-1421.34 1.5 3560.12 -1350.27 1.5 -1324.36 -1279.2 1.5 -1424.05 -1279.2
1.5 -1224.68 -1279.2 1.5 -1125 -1279.2 1.5 -1025.31 -1279.2 1.5
-925.631 -1279.2 1.5 -825.947 -1279.2 1.5 -726.264 -1279.2 1.5 -626.581
-1279.2 1.5 -526.898 -1279.2 1.5 -427.214 -1279.2 1.5 -327.531 -1279.2
1.5 -227.848 -1279.2 1.5 -128.164 -1279.2 1.5 -28.4812 -1279.2 1.5
71.2021 -1279.2 1.5 170.885 -1279.2 1.5 270.569 -1279.2 1.5 370.252
-1279.2 1.5 469.935 -1279.2 1.5 569.619 -1279.2 1.5 669.302 -1279.2
1.5 768.985 -1279.2 1.5 868.669 -1279.2 1.5 968.352 -1279.2 1.5
1068.04 -1279.2 1.5 1167.72 -1279.2 1.5 1267.4 -1279.2 1.5 1367.09
-1279.2 1.5 1466.77 -1279.2 1.5 1566.45 -1279.2 1.5 1666.14 -1279.2
1.5 1765.82 -1279.2 1.5 1865.5 -1279.2 1.5 1965.19 -1279.2 1.5
2064.87 -1279.2 1.5 2164.55 -1279.2 1.5 2264.24 -1279.2 1.5 2363.92
-1279.2 1.5 2463.6 -1279.2 1.5 2563.29 -1279.2 1.5 2662.97 -1279.2
1.5 2762.65 -1279.2 1.5 2862.34 -1279.2 1.5 2962.02 -1279.2 1.5
3061.7 -1279.2 1.5 3161.39 -1279.2 1.5 3261.07 -1279.2 1.5 3360.75
-1279.2 1.5 3460.44 -1279.2 1.5 3560.12 -1279.2 1.5 -1324.36 -1208.14
1.5 -1424.05 -1208.14 1.5 -1224.68 -1208.14 1.5 -1125 -1208.14 1.5
-1025.31 -1208.14 1.5 -925.631 -1208.14 1.5 -825.947 -1208.14 1.5 -726.264
-1208.14 1.5 -626.581 -1208.14 1.5 -526.898 -1208.14 1.5 -427.214 -1208.14
1.5 -327.531 -1208.14 1.5 -227.848 -1208.14 1.5 -128.164 -1208.14 1.5
-28.4812 -1208.14 1.5 71.2021 -1208.14 1.5 170.885 -1208.14 1.5 270.569
-1208.14 1.5 370.252 -1208.14 1.5 469.935 -1208.14 1.5 569.619 -1208.14
1.5 669.302 -1208.14 1.5 768.985 -1208.14 1.5 868.669 -1208.14 1.5
968.352 -1208.14 1.5 1068.04 -1208.14 1.5 1167.72 -1208.14 1.5 1267.4
-1208.14 1.5 1367.09 -1208.14 1.5 1466.77 -1208.14 1.5 1566.45 -1208.14
1.5 1666.14 -1208.14 1.5 1765.82 -1208.14 1.5 1865.5 -1208.14 1.5
1965.19 -1208.14 1.5 2064.87 -1208.14 1.5 2164.55 -1208.14 1.5 2264.24
-1208.14 1.5 2363.92 -1208.14 1.5 2463.6 -1208.14 1.5 2563.29 -1208.14
1.5 2662.97 -1208.14 1.5 2762.65 -1208.14 1.5 2862.34 -1208.14 1.5
2962.02 -1208.14 1.5 3061.7 -1208.14 1.5 3161.39 -1208.14 1.5 3261.07
-1208.14 1.5 3360.75 -1208.14 1.5 3460.44 -1208.14 1.5 3560.12 -1208.14
1.5 -1324.36 -1137.07 1.5 -1424.05 -1137.07 1.5 -1224.68 -1137.07 1.5
-1125 -1137.07 1.5 -1025.31 -1137.07 1.5 -925.631 -1137.07 1.5 -825.947
-1137.07 1.5 -726.264 -1137.07 1.5 -626.581 -1137.07 1.5 -526.898 -1137.07
1.5 -427.214 -1137.07 1.5 -327.531 -1137.07 1.5 -227.848 -1137.07 1.5
-128.164 -1137.07 1.5 -28.4812 -1137.07 1.5 71.2021 -1137.07 1.5 170.885
-1137.07 1.5 270.569 -1137.07 1.5 370.252 -1137.07 1.5 469.935 -1137.07
1.5 569.619 -1137.07 1.5 669.302 -1137.07 1.5 768.985 -1137.07 1.5
868.669 -1137.07 1.5 968.352 -1137.07 1.5 1068.04 -1137.07 1.5 1167.72
-1137.07 1.5 1267.4 -1137.07 1.5 1367.09 -1137.07 1.5 1466.77 -1137.07
1.5 1566.45 -1137.07 1.5 1666.14 -1137.07 1.5 1765.82 -1137.07 1.5
1865.5 -1137.07 1.5 1965.19 -1137.07 1.5 2064.87 -1137.07 1.5 2164.55
-1137.07 1.5 2264.24 -1137.07 1.5 2363.92 -1137.07 1.5 2463.6 -1137.07
1.5 2563.29 -1137.07 1.5 2662.97 -1137.07 1.5 2762.65 -1137.07 1.5
2862.34 -1137.07 1.5 2962.02 -1137.07 1.5 3061.7 -1137.07 1.5 3161.39
-1137.07 1.5 3261.07 -1137.07 1.5 3360.75 -1137.07 1.5 3460.44 -1137.07
1.5 3560.12 -1137.07 1.5 -1324.36 -1066 1.5 -1424.05 -1066 1.5
-1224.68 -1066 1.5 -1125 -1066 1.5 -1025.31 -1066 1.5 -925.631
-1066 1.5 -825.947 -1066 1.5 -726.264 -1066 1.5 -626.581 -1066
1.5 -526.898 -1066 1.5 -427.214 -1066 1.5 -327.531 -1066 1.5
-227.848 -1066 1.5 -128.164 -1066 1.5 -28.4812 -1066 1.5 71.2021
-1066 1.5 170.885 -1066 1.5 270.569 -1066 1.5 370.252 -1066
1.5 469.935 -1066 1.5 569.619 -1066 1.5 669.302 -1066 1.5
768.985 -1066 1.5 868.669 -1066 1.5 968.352 -1066 1.5 1068.04
-1066 1.5 1167.72 -1066 1.5 1267.4 -1066 1.5 1367.09 -1066
1.5 1466.77 -1066 1.5 1566.45 -1066 1.5 1666.14 -1066 1.5
1765.82 -1066 1.5 1865.5 -1066 1.5 1965.19 -1066 1.5 2064.87
-1066 1.5 2164.55 -1066 1.5 2264.24 -1066 1.5 2363.92 -1066
1.5 2463.6 -1066 1.5 2563.29 -1066 1.5 2662.97 -1066 1.5
2762.65 -1066 1.5 2862.34 -1066 1.5 2962.02 -1066 1.5 3061.7
-1066 1.5 3161.39 -1066 1.5 3261.07 -1066 1.5 3360.75 -1066
1.5 3460.44 -1066 1.5 3560.12 -1066 1.5 -1324.36 -994.936 1.5
-1424.05 -994.936 1.5 -1224.68 -994.936 1.5 -1125 -994.936 1.5 -1025.31
-994.936 1.5 -925.631 -994.936 1.5 -825.947 -994.936 1.5 -726.264 -994.936
1.5 -626.581 -994.936 1.5 -526.898 -994.936 1.5 -427.214 -994.936 1.5
-327.531 -994.936 1.5 -227.848 -994.936 1.5 -128.164 -994.936 1.5 -28.4812
-994.936 1.5 71.2021 -994.936 1.5 170.885 -994.936 1.5 270.569 -994.936
1.5 370.252 -994.936 1.5 469.935 -994.936 1.5 569.619 -994.936 1.5
669.302 -994.936 1.5 768.985 -994.936 1.5 868.669 -994.936 1.5 968.352
-994.936 1.5 1068.04 -994.936 1.5 1167.72 -994.936 1.5 1267.4 -994.936
1.5 1367.09 -994.936 1.5 1466.77 -994.936 1.5 1566.45 -994.936 1.5
1666.14 -994.936 1.5 1765.82 -994.936 1.5 1865.5 -994.936 1.5 1965.19
-994.936 1.5 2064.87 -994.936 1.5 2164.55 -994.936 1.5 2264.24 -994.936
1.5 2363.92 -994.936 1.5 2463.6 -994.936 1.5 2563.29 -994.936 1.5
2662.97 -994.936 1.5 2762.65 -994.936 1.5 2862.34 -994.936 1.5 2962.02
-994.936 1.5 3061.7 -994.936 1.5 3161.39 -994.936 1.5 3261.07 -994.936
1.5 3360.75 -994.936 1.5 3460.44 -994.936 1.5 3560.12 -994.936 1.5
-1324.36 -923.869 1.5 -1424.05 -923.869 1.5 -1224.68 -923.869 1.5 -1125
-923.869 1.5 -1025.31 -923.869 1.5 -925.631 -923.869 1.5 -825.947 -923.869
1.5 -875.789 -923.869 1.5 -726.264 -923.869 1.5 -776.106 -923.869 1.5
-626.581 -923.869 1.5 -676.422 -923.869 1.5 -526.898 -923.869 1.5 -576.739
-923.869 1.5 -427.214 -923.869 1.5 -477.056 -923.869 1.5 -327.531 -923.869
1.5 -377.373 -923.869 1.5 -227.848 -923.869 1.5 -277.689 -923.869 1.5
-128.164 -923.869 1.5 -178.006 -923.869 1.5 -28.4811 -923.869 1.5 -78.3227
-923.869 1.5 71.2022 -923.869 1.5 21.3606 -923.869 1.5 170.885 -923.869
1.5 121.044 -923.869 1.5 270.569 -923.869 1.5 220.727 -923.869 1.5
370.252 -923.869 1.5 320.41 -923.869 1.5 469.935 -923.869 1.5 420.094
-923.869 1.5 569.619 -923.869 1.5 519.777 -923.869 1.5 669.302 -923.869
1.5 619.46 -923.869 1.5 768.985 -923.869 1.5 719.144 -923.869 1.5
868.669 -923.869 1.5 818.827 -923.869 1.5 968.352 -923.869 1.5 918.511
-923.869 1.5 1068.04 -923.869 1.5 1167.72 -923.869 1.5 1267.4 -923.869
1.5 1367.08 -923.869 1.5 1466.77 -923.869 1.5 1566.45 -923.869 1.5
1666.13 -923.869 1.5 1765.82 -923.869 1.5 1865.5 -923.869 1.5 1965.19
-923.869 1.5 2064.87 -923.869 1.5 2164.55 -923.869 1.5 2264.24 -923.869
1.5 2363.92 -923.869 1.5 2463.6 -923.869 1.5 2563.29 -923.869 1.5
2662.97 -923.869 1.5 2762.65 -923.869 1.5 2862.34 -923.869 1.5 2962.02
-923.869 1.5 3061.7 -923.869 1.5 3161.39 -923.869 1.5 3261.07 -923.869
1.5 3360.75 -923.869 1.5 3460.44 -923.869 1.5 3560.12 -923.869 1.5
-1324.36 -852.802 1.5 -1424.05 -852.802 1.5 -1224.68 -852.802 1.5 -1125
-852.802 1.5 -1025.31 -852.802 1.5 -925.631 -888.336 1.5 -925.631 -852.802
1.5 -875.789 -888.336 1.5 -776.106 -888.336 1.5 -801.027 -888.336 1.5
-825.947 -888.336 1.5 -676.422 -888.336 1.5 -701.343 -888.336 1.5 -726.264
-888.336 1.5 -576.739 -888.336 1.5 -601.66 -888.336 1.5 -626.581 -888.336
1.5 -477.056 -888.336 1.5 -501.977 -888.336 1.5 -526.898 -888.336 1.5
-377.373 -888.336 1.5 -402.293 -888.336 1.5 -427.214 -888.336 1.5 -277.689
-888.336 1.5 -302.61 -888.336 1.5 -327.531 -888.336 1.5 -178.006 -888.336
1.5 -202.927 -888.336 1.5 -227.848 -888.336 1.5 -78.3226 -888.336 1.5
-103.243 -888.336 1.5 -128.164 -888.336 1.5 21.3607 -888.336 1.5 -3.56012
-888.336 1.5 -28.4809 -888.336 1.5 121.044 -888.336 1.5 96.1232 -888.336
1.5 71.2024 -888.336 1.5 220.727 -888.336 1.5 195.807 -888.336 1.5
170.886 -888.336 1.5 320.411 -888.336 1.5 295.49 -888.336 1.5 270.569
-888.336 1.5 420.094 -888.336 1.5 395.173 -888.336 1.5 370.252 -888.336
1.5 519.777 -888.336 1.5 494.856 -888.336 1.5 469.936 -888.336 1.5
[...]
CELL_DATA 27354
FIELD attributes 2
k 1 27354 float
1.21379 0.461406 0.31299 0.269945 0.252074 0.244335 0.241806 0.24051 0.238309 0.235484 0.233584
0.23339 0.235356 0.241026 0.250016 0.26062 0.270806 0.278786 0.284122 0.287225 0.288952
0.289763 0.290206 0.290366 0.290441 0.290435 0.290286 0.290103 0.289778 0.289494 0.289185
0.288893 0.288631 0.288425 0.288228 0.288057 0.287913 0.287788 0.28769 0.287583 0.287474
0.287371 0.287289 0.287215 0.287158 0.287105 0.287065 0.287024 0.287002 0.286949 1.2138
0.461399 0.312992 0.269938 0.252065 0.244352 0.241794 0.240486 0.238283 0.235471 0.233577
0.233402 0.235393 0.241075 0.250103 0.26062 0.270782 0.278779 0.284129 0.28724 0.288984
0.289807 0.290273 0.290427 0.290495 0.290469 0.290298 0.290138 0.289829 0.289544 0.289212
0.288909 0.288629 0.288404 0.288227 0.288069 0.287931 0.287811 0.287716 0.287621 0.287516
0.287396 0.287313 0.287239 0.28717 0.28708 0.287028 0.286994 0.286967 0.286896 1.21378
0.461419 0.312986 0.269962 0.252091 0.24434 0.241766 0.240462 0.238281 0.235492 0.233617
0.233419 0.235402 0.241089 0.250159 0.26068 0.270769 0.278738 0.2841 0.287287 0.289074
0.289966 0.290451 0.290596 0.290635 0.290572 0.290362 0.290225 0.289973 0.289713 0.289371
0.28903 0.28873 0.288485 0.288284 0.288105 0.287941 0.28779 0.287676 0.287574 0.287484
0.287378 0.287288 0.287201 0.287155 0.287097 0.287032 0.287006 0.286986 0.286929 1.21382
0.461404 0.312986 0.269947 0.252018 0.244429 0.241745 0.24036 0.2382 0.23541 0.233576
0.233467 0.235551 0.241293 0.2503 0.260806 0.270858 0.278764 0.28414 0.287336 0.289164
0.290097 0.290575 0.290694 0.290725 0.290686 0.290491 0.290341 0.29008 0.289788 0.289392
0.289 0.288669 0.288421 0.288209 0.288024 0.287866 0.287727 0.287605 0.287484 0.287386
0.287309 0.287263 0.28718 0.287114 0.287063 0.287033 0.286988 0.286958 0.286906 1.21381
0.461443 0.312981 0.269999 0.252133 0.244356 0.241699 0.24036 0.238197 0.235428 0.233633
0.233525 0.235617 0.241352 0.250311 0.260816 0.270874 0.278799 0.284227 0.287408 0.289279
0.290227 0.290762 0.290883 0.290891 0.290818 0.290548 0.290387 0.290154 0.289877 0.289435
0.289017 0.288671 0.288426 0.288227 0.288051 0.287874 0.287706 0.287565 0.287421 0.287299
0.287215 0.287147 0.28707 0.287 0.286936 0.286876 0.286823 0.286813 0.286809 1.21371
0.461601 0.312763 0.270352 0.251454 0.244609 0.241884 0.240247 0.237841 0.234928 0.233272
0.233371 0.235816 0.241837 0.250775 0.261172 0.271193 0.279149 0.284552 0.287805 0.289629
0.290648 0.291094 0.291014 0.290943 0.290945 0.290924 0.29072 0.290516 0.290239 0.289606
0.288954 0.28852 0.288222 0.288008 0.287837 0.28767 0.287492 0.287323 0.287179 0.287082
0.287022 0.286987 0.286951 0.286898 0.286846 0.286805 0.286788 0.286791 0.28682 1.21404
0.46128 0.313136 0.27024 0.251621 0.245562 0.244425 0.244911 0.24452 0.241778 0.239167
0.238454 0.239744 0.244699 0.252822 0.262972 0.272261 0.279459 0.283889 0.28694 0.288866
0.290385 0.29133 0.292175 0.291418 0.291396 0.291114 0.290968 0.290927 0.290654 0.289818
0.288919 0.288385 0.288173 0.288155 0.288153 0.28811 0.287982 0.287789 0.287491 0.287208
0.287005 0.286911 0.286866 0.286848 0.286846 0.286856 0.286869 0.28689 0.286917 1.21438
0.46067 0.314552 0.267784 0.253272 0.141946 0.23736 0.284057 0.292114 0.295666 0.299329
0.302562 0.307354 0.317126 0.331771 0.349762 0.368933 0.384993 0.395269 0.400223 0.402348
0.403388 0.403807 0.393491 0.628383 0.373731 0.315978 0.303679 0.300546 0.299026 0.296913
0.294111 0.291447 0.289571 0.288529 0.287935 0.287702 0.287641 0.287634 0.287566 0.287376
0.287182 0.287042 0.286927 0.286852 0.286813 0.286792 0.28679 0.286802 0.286824 1.21422
0.460865 0.314073 0.268517 0.252854 0.161778 0.594977 0.60022 0.362423 0.309793 0.299387
0.298342 0.297185 0.294616 0.291455 0.288508 0.286336 0.285038 0.284503 0.284422 0.284533
0.284957 0.28561 0.286264 0.286691 0.286859 0.286871 0.286845 0.286821 0.286812 0.286815
0.286836 0.286867 1.21433 0.460751 0.314323 0.268245 0.252773 0.161913 0.590045 0.59987
0.362257 0.309614 0.299409 0.298499 0.297284 0.294395 0.290913 0.287903 0.285806 0.284622
0.284147 0.2841 0.284242 0.284677 0.2853 0.285993 0.286482 0.286714 0.286786 0.286806
0.286813 0.286818 0.286828 0.286849 0.286858 1.21446 0.460741 0.314294 0.268228 0.252731
0.161888 0.589769 0.59959 0.362234 0.309553 0.299529 0.298694 0.297466 0.294466 0.290843
0.287809 0.285734 0.284623 0.284208 0.284185 0.284389 0.284848 0.285449 0.286076 0.286499
0.286703 0.286788 0.286818 0.286831 0.286827 0.286821 0.286829 0.286837 1.21452 0.460733
0.314301 0.268225 0.252676 0.161908 0.589416 0.59958 0.362384 0.309722 0.299611 0.298731
0.297413 0.294293 0.290604 0.28758 0.285524 0.284454 0.284073 0.28407 0.284317 0.284811
0.285438 0.286078 0.286504 0.286692 0.28676 0.286789 0.286804 0.286811 0.286821 0.286846
0.286856 1.21453 0.460802 0.314285 0.268225 0.252599 0.161928 0.588098 0.598302 0.36182
0.309229 0.299407 0.298604 0.297318 0.294186 0.290469 0.287445 0.285419 0.284399 0.284055
0.284058 0.284301 0.284796 0.285416 0.286056 0.286466 0.286652 0.286725 0.286759 0.286775
0.286787 0.2868 0.286833 0.286845 1.21457 0.460829 0.314251 0.268236 0.252511 0.161955
0.588151 0.599309 0.362935 0.310282 0.299815 0.298733 0.297193 0.293848 0.290156 0.287152
0.285173 0.284207 0.283894 0.283915 0.284193 0.284726 0.285374 0.286006 0.286417 0.28661
0.2867 0.286738 0.28675 0.286762 0.28677 0.286791 0.286804 1.2146 0.460877 0.314216
0.268248 0.252411 0.161991 0.5825 0.592636 0.35988 0.30777 0.298278 0.297757 0.29667
0.293572 0.28993 0.286985 0.285074 0.284163 0.283875 0.283895 0.284166 0.284704 0.28535
0.285979 0.286388 0.286576 0.286654 0.286692 0.286718 0.286743 0.28677 0.286802 0.286847
1.21462 0.460902 0.314175 0.268258 0.252287 0.162045 0.522379 0.526413 0.333836 0.295071
0.291796 0.292881 0.293743 0.292301 0.289132 0.286369 0.28474 0.283946 0.283722 0.283767
0.284068 0.284633 0.285298 0.285936 0.286369 0.286558 0.286638 0.286677 0.286712 0.286734
0.286761 0.286784 0.286808 1.21465 0.460952 0.314128 0.268244 0.252169 0.162091 0.216927
0.673365 0.672533 0.388924 0.324131 0.306089 0.301149 0.298414 0.294214 0.29028 0.287051
0.285126 0.284183 0.283868 0.283873 0.284115 0.28466 0.285313 0.285932 0.286355 0.286542
0.286625 0.286669 0.286693 0.286715 0.286728 0.286732 0.286756 1.21466 0.461002 0.314079
0.268189 0.252085 0.162134 0.677261 0.623429 0.374254 0.318749 0.30495 0.301824 0.299028
0.294822 0.290638 0.287275 0.285198 0.284187 0.283846 0.283842 0.284082 0.284626 0.285267
0.285896 0.286341 0.286546 0.286626 0.28667 0.286691 0.286694 0.286696 0.286702 0.28673
1.21467 0.461041 0.314027 0.268139 0.252015 0.162171 0.391453 0.464367 0.304701 0.274625
0.276196 0.280919 0.284931 0.286175 0.285947 0.284938 0.284208 0.283866 0.283794 0.283838
0.284105 0.28466 0.285303 0.285923 0.286363 0.28656 0.286635 0.286663 0.286671 0.286672
0.286676 0.286681 0.286715 1.21468 0.461066 0.313984 0.268115 0.25199 0.162154 0.40243
0.46997 0.295971 0.265243 0.266719 0.273213 0.280127 0.283798 0.285003 0.284856 0.28432
0.284003 0.283893 0.283902 0.284101 0.284643 0.285286 0.285882 0.286308 0.286504 0.286587
0.286619 0.286638 0.286646 0.286659 0.286671 0.286723 1.21469 0.461069 0.313967 0.268114
0.251992 0.162132 0.629775 0.600129 0.360178 0.308662 0.296687 0.294782 0.294483 0.293084
0.29 0.287317 0.285524 0.284532 0.284138 0.284073 0.284213 0.284683 0.285277 0.285857
0.286287 0.286507 0.286601 0.286641 0.28666 0.286666 0.286667 0.286668 0.286693 1.21473
0.461039 0.313989 0.268118 0.252008 0.16213 0.47024 0.487807 0.322291 0.290888 0.288745
0.290296 0.291182 0.290153 0.287562 0.28533 0.284205 0.283727 0.283648 0.283692 0.283963
0.284569 0.285259 0.28588 0.286324 0.286528 0.286614 0.286657 0.286674 0.286676 0.286674
0.286675 0.286706 1.21475 0.461007 0.314047 0.268125 0.252052 0.162111 0.45105 0.551292
0.338372 0.296664 0.290137 0.290623 0.291398 0.290611 0.287999 0.285776 0.284574 0.283969
0.283764 0.283764 0.284024 0.284641 0.285321 0.285921 0.286343 0.286538 0.28661 0.286651
0.286668 0.286677 0.286687 0.286696 0.286733 1.21477 0.460964 0.314095 0.268159 0.252114
0.162081 0.598275 0.602327 0.367265 0.312347 0.299269 0.297014 0.296056 0.293878 0.290534
0.287652 0.285667 0.284533 0.284076 0.284005 0.28418 0.284667 0.285271 0.285876 0.286318
0.286532 0.286603 0.286643 0.286676 0.286696 0.28672 0.286735 0.286774 1.21475 0.460908
0.314145 0.268191 0.252219 0.162017 0.598065 0.594845 0.358699 0.307267 0.297814 0.296733
0.295376 0.292596 0.289588 0.286749 0.285016 0.284146 0.283863 0.283879 0.284129 0.284661
0.285308 0.285917 0.286346 0.286554 0.286639 0.286679 0.286707 0.286724 0.286728 0.286725
0.28674 1.21469 0.460873 0.314206 0.268207 0.252327 0.16197 0.568722 0.588472 0.358871
0.308454 0.299324 0.298374 0.296567 0.293011 0.289445 0.286559 0.284784 0.28398 0.283746
0.28379 0.284092 0.284645 0.285297 0.285924 0.286357 0.286563 0.286653 0.286686 0.286712
0.286729 0.286748 0.286763 0.286777 1.21463 0.460821 0.314241 0.268235 0.252432 0.161912
0.586905 0.597264 0.362111 0.309508 0.299594 0.298758 0.297209 0.293756 0.290052 0.287042
0.285102 0.284172 0.283875 0.283898 0.284169 0.284689 0.285328 0.285977 0.286402 0.286587
0.28666 0.286699 0.286728 0.286749 0.286767 0.286797 0.286822 1.21455 0.460804 0.314265
0.268243 0.252533 0.16187 0.588153 0.597493 0.361939 0.309515 0.299535 0.298658 0.297226
0.293942 0.290226 0.287219 0.285241 0.284263 0.28394 0.283955 0.284216 0.284729 0.285358
0.28599 0.286411 0.286595 0.286665 0.2867 0.286729 0.286758 0.28679 0.286843 0.286889
1.21446 0.460763 0.314279 0.268252 0.252636 0.161838 0.589233 0.598238 0.362056 0.309411
0.299444 0.298611 0.297275 0.294115 0.29043 0.287414 0.285401 0.28436 0.283999 0.284
0.284246 0.284754 0.285396 0.286041 0.286458 0.286644 0.28671 0.286749 0.286773 0.286791
0.286807 0.286841 0.286878 1.21438 0.460776 0.314274 0.268258 0.252713 0.161811 0.589829
0.598639 0.361897 0.309303 0.299291 0.298461 0.297216 0.294194 0.290608 0.287588 0.285546
0.284477 0.284096 0.284084 0.284304 0.284784 0.285398 0.286034 0.286459 0.286664 0.286742
0.286774 0.286782 0.286774 0.28676 0.28676 0.286776 1.21423 0.460782 0.314308 0.268279
0.252779 0.16179 0.590124 0.598714 0.361822 0.309245 0.299135 0.298273 0.297072 0.294188
0.290738 0.287742 0.285664 0.284506 0.284052 0.284013 0.284164 0.284607 0.285238 0.285942
0.286455 0.286715 0.286793 0.286807 0.286809 0.286812 0.286819 0.286849 0.286861 1.21413
0.460875 0.314052 0.268563 0.252881 0.16182 0.59131 0.599353 0.36206 0.309464 0.299112
0.298104 0.296958 0.294409 0.29128 0.288348 0.286187 0.284912 0.284392 0.284323 0.284444
0.284871 0.285521 0.286171 0.2866 0.286787 0.286833 0.286833 0.286817 0.286798 0.286783
0.286784 0.286786 1.21433 0.460638 0.314548 0.267805 0.253297 0.142897 0.253868 0.341984
0.345954 0.347691 0.351965 0.355756 0.363277 0.375941 0.393826 0.414915 0.437876 0.457724
0.471105 0.477916 0.480566 0.481594 0.483389 0.622655 0.627642 0.37343 0.315702 0.303468
0.300391 0.298868 0.29677 0.293976 0.291317 0.289454 0.288421 0.28783 0.287611 0.287576
0.287579 0.28751 0.287312 0.287125 0.286975 0.286862 0.286778 0.28673 0.286705 0.286698
0.286707 0.28674 1.21399 0.461266 0.313144 0.27024 0.251575 0.245729 0.244664 0.245435
0.245028 0.242412 0.239881 0.238997 0.240173 0.244241 0.252822 0.262616 0.271925 0.278987
0.28373 0.286874 0.28899 0.290482 0.291368 0.292267 0.291411 0.291356 0.290997 0.290856
0.290806 0.290511 0.289645 0.288764 0.288248 0.288049 0.288029 0.28803 0.288009 0.287916
0.287725 0.287437 0.287151 0.286944 0.286835 0.286787 0.286769 0.286765 0.286768 0.286769
0.286777 0.28678 1.21367 0.461588 0.312751 0.270381 0.251415 0.244669 0.241894 0.240283
0.237991 0.234854 0.233505 0.233464 0.236112 0.241816 0.251098 0.261243 0.271442 0.27936
0.284821 0.28798 0.289814 0.290721 0.291134 0.29101 0.29084 0.290852 0.290844 0.29063
0.290381 0.290092 0.289448 0.288823 0.288404 0.288108 0.287895 0.287741 0.287583 0.28741
0.287246 0.287108 0.287009 0.286942 0.286908 0.286887 0.286873 0.286852 0.286835 0.286802
0.286793 0.286774 1.21379 0.461426 0.312968 0.270008 0.252151 0.2444 0.241693 0.240412
0.238252 0.235479 0.233756 0.23365 0.235784 0.241477 0.250414 0.260974 0.270993 0.278976
0.284342 0.287571 0.289406 0.290315 0.290812 0.290887 0.290868 0.290739 0.290452 0.290278
0.290034 0.289734 0.289293 0.288887 0.288546 0.288302 0.288113 0.287941 0.287782 0.287632
0.287479 0.287344 0.287241 0.28715 0.28708 0.287013 0.286956 0.286904 0.286856 0.286819
0.286819 0.286808 1.21382 0.461387 0.312983 0.269949 0.252039 0.244464 0.241736 0.240401
0.238262 0.235469 0.233696 0.233578 0.235694 0.241436 0.250404 0.260973 0.270937 0.27892
0.284283 0.287465 0.289291 0.290163 0.290623 0.290705 0.290707 0.290614 0.290398 0.290242
0.289962 0.28967 0.289272 0.288879 0.288528 0.288288 0.288115 0.287957 0.287806 0.287658
0.287539 0.28743 0.287338 0.287258 0.28719 0.287127 0.28707 0.287033 0.287008 0.286989
0.286974 0.28692 1.21379 0.461403 0.312983 0.269963 0.252114 0.244376 0.241763 0.240496
0.238341 0.235565 0.233711 0.233533 0.235526 0.241237 0.250226 0.260833 0.270857 0.278881
0.284245 0.287422 0.289201 0.290035 0.290484 0.290598 0.290614 0.29053 0.29031 0.290147
0.289868 0.289607 0.289256 0.288921 0.288623 0.288378 0.288177 0.288008 0.287851 0.287707
0.287594 0.287491 0.287402 0.287312 0.287231 0.287157 0.287105 0.287067 0.287049 0.287031
0.287006 0.286924 1.21381 0.461384 0.312989 0.26994 0.252084 0.244391 0.241788 0.240521
0.238345 0.235536 0.233684 0.233515 0.235496 0.241213 0.250191 0.260768 0.270856 0.278897
0.284271 0.287367 0.289076 0.289868 0.290317 0.290449 0.290498 0.290463 0.290265 0.290059
0.289748 0.289471 0.289125 0.288829 0.288567 0.28832 0.288129 0.28798 0.287851 0.287745
0.287654 0.287551 0.287433 0.287329 0.287251 0.287195 0.287131 0.287076 0.287031 0.28701
0.287018 0.286997 1.2138 0.46139 0.312987 0.269947 0.252096 0.244374 0.241798 0.24055
0.238378 0.235531 0.233683 0.233501 0.235477 0.241161 0.250118 0.260748 0.270881 0.278911
0.284243 0.287339 0.289034 0.289822 0.290272 0.29041 0.290465 0.290434 0.290229 0.290008
0.289677 0.289386 0.28905 0.288783 0.288521 0.288307 0.288122 0.287967 0.287846 0.287749
0.287641 0.287531 0.287444 0.287368 0.287275 0.287193 0.287128 0.287059 0.287001 0.286971
0.286971 0.286977 0.13224 0.0421933 0.148372 0.0445734 0.0170279 0.91106 0.101437 0.0776082
0.0521097 0.76734 0.0801551 0.0738896 0.244436 0.0332143 0.0458962 0.472742 0.0896182 0.223455
1.1911 1.02479 0.477567 1.09585 0.624612 0.583452 0.666252 0.832852 1.45921 0.229138
0.682148 0.809912 0.860583 1.12118 1.08793 0.468688 0.478924 0.81678 1.13758 1.03618
1.03425 0.0422529 1.12403 1.14255 1.15363 1.15236 0.261424 0.313063 0.0734301 0.206372
0.514779 0.942504 0.503773 1.07394 0.821472 0.578853 0.512972 0.94174 1.10541 1.86557
0.135746 0.13623 0.886569 0.00931088 1.34051 0.113311 0.510449 0.668711 0.76827 0.532319
0.444578 0.420816 0.865206 0.888503 0.848242 0.474405 0.0995787 0.154527 0.0428844 0.057799
0.418013 0.0434541 0.246077 0.0745237 0.156774 0.75429 0.441659 1.14141 0.279687 0.274836
0.185405 1.29433 0.869524 0.53525 1.1534 0.468849 0.921523 0.885179 0.874029 0.474739
0.323893 0.455883 1.49027 1.26361 0.69362 1.37583 0.48445 0.342747 0.802676 0.475532
0.544499 0.596751 0.51989 0.284097 0.635716 0.142861 0.313135 0.0706135 0.278392 1.15765
1.11252 1.21657 0.933345 0.742618 0.525286 0.659784 0.758623 0.749556 0.379841 0.246901
0.579896 0.392214 0.708627 0.633464 0.0875284 0.403256 0.122333 0.19262 0.259898 0.149366
0.34181 0.0828399 0.348794 0.42106 0.0796862 0.0354486 0.0926174 0.448855 0.464029 0.0987842
0.141315 0.261839 0.128162 0.0618312 0.0108807 0.114258 0.202304 0.0309959 0.439437 0.425718
0.079458 0.02999 0.0562911 0.291108 0.164248 0.0745616 0.407591 0.415267 0.778434 1.42414
0.618454 0.446313 0.795111 0.353354 0.551762 0.530561 0.150765 0.0926503 0.335112 0.369192
1.11689 0.0967599 0.171174 0.443897 0.686591 0.461949 0.279048 0.248289 0.361388 0.305447
0.124675 0.41266 0.384849 1.52752 0.710452 0.73995 1.4242 0.481549 0.531636 0.0215371
0.0479379 1.05253 1.01075 0.646428 1.12832 0.160958 0.452406 0.847224 0.493743 0.998899
0.546307 0.4826 0.251569 0.166306 0.416809 0.330712 0.287495 0.525619 0.150567 0.196998
0.424039 0.263449 0.0861128 0.179395 0.489765 0.222664 0.770342 0.0553896 0.163291 0.206283
0.385267 0.483532 0.616947 0.305798 0.658641 0.945944 0.809105 0.826284 0.155584 0.544367
1.07482 1.13038 0.709379 0.112238 0.482134 0.360608 0.395701 0.831108 0.273474 0.137221
0.188298 0.0974153 0.277594 0.629055 0.124317 0.045091 0.0273876 0.119584 0.0204132 0.0590195
0.563884 0.310792 0.271522 0.213438 0.270068 0.233036 0.541893 0.370928 0.102461 0.92491
0.671856 1.02411 0.385332 0.376707 0.632852 0.371499 0.621416 1.26802 0.151193 0.110828
0.533518 0.932259 1.96564 1.88109 0.952943 0.134649 0.0851399 0.166625 0.254407 0.160085
0.150909 0.350724 0.675004 0.798518 0.154933 0.283061 0.236784 0.2157 0.257414 0.773716
1.06143 0.657709 0.253105 0.477212 0.573586 0.565339 0.464889 0.128883 0.0815066 0.17736
0.313609 0.237114 0.191239 0.136338 0.293093 0.265145 0.605753 0.495623 0.831778 0.346463
0.390149 0.0892819 0.0719943 0.127391 0.0359178 0.303483 0.228149 0.30801 0.332198 0.524325
0.577962 0.57137 0.622092 0.280427 0.821612 0.214933 0.287414 0.408431 0.145106 0.353312
0.509077 0.185108 0.481556 0.433659 0.555932 0.253308 0.470426 0.379732 0.130965 0.392426
0.248472 0.250317 0.380206 0.282055 0.345661 0.210074 0.170112 0.309541 0.154846 0.076986
0.346133 0.24852 0.261605 0.320267 0.339383 0.291013 0.444956 0.484269 0.302009 0.117496
0.0898931 0.119417 0.245929 0.148153 0.113329 0.49404 1.28813 1.24691 0.603272 1.11806
0.829527 0.237635 0.491029 0.261902 0.475593 0.213478 0.340919 0.0932922 0.311413 0.397617
0.333164 0.210678 0.542281 0.223024 1.06045 0.767198 0.819573 1.3397 0.627662 0.42454
0.268086 0.128513 0.0553269 0.470314 0.270545 0.36919 0.17894 0.151961 0.364193 0.694305
0.482005 0.18384 0.43059 0.325234 0.258922 0.3329 0.617143 0.195475 0.153437 0.0167841
0.263193 0.143458 0.0247689 0.120282 0.354154 0.125408 0.117006 0.153798 1.08114 0.587798
0.48415 0.683545 0.633889 0.416987 0.445698 0.494671 0.101615 0.553417 0.160945 0.0977739
1.17282 0.777366 0.712447 0.271262 0.191548 0.325652 0.146156 0.0853891 0.468593 0.928795
0.802316 0.465383 0.313581 0.320525 0.320241 0.109214 0.622096 0.766574 0.809071 0.722559
0.0149738 0.077826 0.226559 0.142064 0.114731 0.0987798 0.39054 0.252049 0.0421981 0.345666
0.540143 0.15073 0.258178 0.191493 0.079018 0.123036 0.262721 0.328765 0.307854 0.435711
0.53422 0.0302221 0.147617 0.323426 0.18501 0.139072 0.0233912 0.102366 0.0491104 0.160592
0.0630769 0.376748 0.578735 0.290688 0.274267 0.218252 0.188654 0.274562 0.621654 1.06403
1.12376 0.872057 0.316818 0.498457 0.719763 0.575192 0.53345 0.193811 0.354719 0.441692
0.542532 0.910298 0.251171 0.56121 0.30969 0.605256 0.774351 0.802315 0.45271 1.10912
0.395694 0.920877 0.197515 0.31109 0.427671 1.5797 0.718664 0.762943 0.785177 1.01436
1.00645 0.309946 1.54625 0.487204 0.740963 1.37964 0.982802 1.259 1.28702 0.876462
0.624519 1.22229 0.289389 0.682861 0.446499 0.298031 0.567532 1.24106 1.17402 0.87702
0.805537 1.07345 1.03921 0.771882 0.568044 1.12511 1.16793 0.932395 0.49722 0.984843
0.347174 0.957874 0.794076 1.11329 0.833082 1.04572 0.86281 0.959126 1.32193 1.25064
1.22383 0.162866 1.10216 0.451773 0.381694 0.975712 1.28974 0.617338 0.552962 0.965213
0.896395 1.16184 1.29243 0.63954 1.30923 1.14464 1.20002 0.653169 0.605539 1.07619
0.559414 1.66489 1.26855 1.30443 0.586674 0.710845 1.1673 0.919212 0.829239 0.499286
1.32924 0.859846 1.45957 0.398728 1.4652 1.19665 0.839211 1.06738 0.745686 1.30365
0.949153 1.40113 0.643057 0.615568 1.67201 1.91 1.27855 1.79055 1.75159 1.92552
2.16094 2.05308 2.03964 1.93195 2.01673 2.05407 1.65813 0.905534 1.01729 1.90814
1.51319 0.891494 0.0787597 0.933058 1.74788 1.81136 1.97511 0.758901 1.72445 1.17611
1.77854 1.80932 1.77008 0.756972 0.602256 0.462994 0.784901 0.750604 0.961805 0.393035
0.290021 0.375503 0.224488 0.243773 0.255357 0.211332 0.424215 0.185386 0.399792 0.502246