# vtk DataFile Version 2.0
sampleSurface
ASCII
DATASET POLYDATA
POINTS 28247 float
-1488.34 -1520.34 1.5 -1600.36 -1520.34 1.5 -1600.36 -1600.36 1.5 -1488.34 -1600.36
1.5 -1376.31 -1520.34 1.5 -1376.31 -1600.36 1.5 -1264.29 -1520.34 1.5
-1264.29 -1600.36 1.5 -1152.26 -1520.34 1.5 -1152.26 -1600.36 1.5 -1040.23
-1520.34 1.5 -1040.23 -1600.36 1.5 -928.21 -1520.34 1.5 -928.21 -1600.36
1.5 -816.184 -1520.34 1.5 -816.184 -1600.36 1.5 -704.159 -1520.34 1.5
-704.159 -1600.36 1.5 -592.133 -1520.34 1.5 -592.133 -1600.36 1.5 -480.108
-1520.34 1.5 -480.108 -1600.36 1.5 -368.083 -1520.34 1.5 -368.083 -1600.36
1.5 -256.057 -1520.34 1.5 -256.057 -1600.36 1.5 -144.032 -1520.34 1.5
-144.032 -1600.36 1.5 -32.0067 -1520.34 1.5 -32.0068 -1600.36 1.5 80.0186
-1520.34 1.5 80.0185 -1600.36 1.5 192.044 -1520.34 1.5 192.044 -1600.36
1.5 304.069 -1520.34 1.5 304.069 -1600.36 1.5 416.094 -1520.34 1.5
416.094 -1600.36 1.5 528.12 -1520.34 1.5 528.12 -1600.36 1.5 640.145
-1520.34 1.5 640.145 -1600.36 1.5 752.17 -1520.34 1.5 752.17 -1600.36
1.5 864.196 -1520.34 1.5 864.196 -1600.36 1.5 976.221 -1520.34 1.5
976.221 -1600.36 1.5 1088.25 -1520.34 1.5 1088.25 -1600.36 1.5 1200.27
-1520.34 1.5 1200.27 -1600.36 1.5 1312.3 -1520.34 1.5 1312.3 -1600.36
1.5 1424.32 -1520.34 1.5 1424.32 -1600.36 1.5 1536.35 -1520.34 1.5
1536.35 -1600.36 1.5 1648.37 -1520.34 1.5 1648.37 -1600.36 1.5 1760.4
-1520.34 1.5 1760.4 -1600.36 1.5 1872.42 -1520.34 1.5 1872.42 -1600.36
1.5 1984.45 -1520.34 1.5 1984.45 -1600.36 1.5 2096.47 -1520.34 1.5
2096.47 -1600.36 1.5 2208.5 -1520.34 1.5 2208.5 -1600.36 1.5 2320.52
-1520.34 1.5 2320.52 -1600.36 1.5 2432.55 -1520.34 1.5 2432.55 -1600.36
1.5 2544.58 -1520.34 1.5 2544.58 -1600.36 1.5 2656.6 -1520.34 1.5
2656.6 -1600.36 1.5 2768.63 -1520.34 1.5 2768.63 -1600.36 1.5 2880.65
-1520.34 1.5 2880.65 -1600.36 1.5 2992.68 -1520.34 1.5 2992.68 -1600.36
1.5 3104.7 -1520.34 1.5 3104.7 -1600.36 1.5 3216.73 -1520.34 1.5
3216.73 -1600.36 1.5 3328.75 -1520.34 1.5 3328.75 -1600.36 1.5 3440.78
-1520.34 1.5 3440.78 -1600.36 1.5 3552.8 -1520.34 1.5 3552.8 -1600.36
1.5 3664.83 -1520.34 1.5 3664.83 -1600.36 1.5 3776.85 -1520.34 1.5
3776.85 -1600.36 1.5 3888.88 -1520.34 1.5 3888.88 -1600.36 1.5 4000.9
-1600.36 1.5 4000.9 -1520.34 1.5 -1488.34 -1440.33 1.5 -1600.36 -1440.33
1.5 -1376.31 -1440.33 1.5 -1264.29 -1440.33 1.5 -1152.26 -1440.33 1.5
-1040.23 -1440.33 1.5 -928.21 -1440.33 1.5 -816.184 -1440.33 1.5 -704.159
-1440.33 1.5 -592.133 -1440.33 1.5 -480.108 -1440.33 1.5 -368.083 -1440.33
1.5 -256.057 -1440.33 1.5 -144.032 -1440.33 1.5 -32.0067 -1440.33 1.5
80.0186 -1440.33 1.5 192.044 -1440.33 1.5 304.069 -1440.33 1.5 416.094
-1440.33 1.5 528.12 -1440.33 1.5 640.145 -1440.33 1.5 752.17 -1440.33
1.5 864.196 -1440.33 1.5 976.221 -1440.33 1.5 1088.25 -1440.33 1.5
1200.27 -1440.33 1.5 1312.3 -1440.33 1.5 1424.32 -1440.33 1.5 1536.35
-1440.33 1.5 1648.37 -1440.33 1.5 1760.4 -1440.33 1.5 1872.42 -1440.33
1.5 1984.45 -1440.33 1.5 2096.47 -1440.33 1.5 2208.5 -1440.33 1.5
2320.52 -1440.33 1.5 2432.55 -1440.33 1.5 2544.58 -1440.33 1.5 2656.6
-1440.33 1.5 2768.63 -1440.33 1.5 2880.65 -1440.33 1.5 2992.68 -1440.33
1.5 3104.7 -1440.33 1.5 3216.73 -1440.33 1.5 3328.75 -1440.33 1.5
3440.78 -1440.33 1.5 3552.8 -1440.33 1.5 3664.83 -1440.33 1.5 3776.85
-1440.33 1.5 3888.88 -1440.33 1.5 4000.9 -1440.33 1.5 -1488.34 -1360.31
1.5 -1600.36 -1360.31 1.5 -1376.31 -1360.31 1.5 -1264.29 -1360.31 1.5
-1152.26 -1360.31 1.5 -1040.23 -1360.31 1.5 -928.21 -1360.31 1.5 -816.184
-1360.31 1.5 -704.159 -1360.31 1.5 -592.133 -1360.31 1.5 -480.108 -1360.31
1.5 -368.083 -1360.31 1.5 -256.057 -1360.31 1.5 -144.032 -1360.31 1.5
-32.0067 -1360.31 1.5 80.0186 -1360.31 1.5 192.044 -1360.31 1.5 304.069
-1360.31 1.5 416.094 -1360.31 1.5 528.12 -1360.31 1.5 640.145 -1360.31
1.5 752.17 -1360.31 1.5 864.196 -1360.31 1.5 976.221 -1360.31 1.5
1088.25 -1360.31 1.5 1200.27 -1360.31 1.5 1312.3 -1360.31 1.5 1424.32
-1360.31 1.5 1536.35 -1360.31 1.5 1648.37 -1360.31 1.5 1760.4 -1360.31
1.5 1872.42 -1360.31 1.5 1984.45 -1360.31 1.5 2096.47 -1360.31 1.5
2208.5 -1360.31 1.5 2320.52 -1360.31 1.5 2432.55 -1360.31 1.5 2544.58
-1360.31 1.5 2656.6 -1360.31 1.5 2768.63 -1360.31 1.5 2880.65 -1360.31
1.5 2992.68 -1360.31 1.5 3104.7 -1360.31 1.5 3216.73 -1360.31 1.5
3328.75 -1360.31 1.5 3440.78 -1360.31 1.5 3552.8 -1360.31 1.5 3664.83
-1360.31 1.5 3776.85 -1360.31 1.5 3888.88 -1360.31 1.5 4000.9 -1360.31
1.5 -1488.34 -1280.29 1.5 -1600.36 -1280.29 1.5 -1376.31 -1280.29 1.5
-1264.29 -1280.29 1.5 -1152.26 -1280.29 1.5 -1040.23 -1280.29 1.5 -928.209
-1280.29 1.5 -816.184 -1280.29 1.5 -704.159 -1280.29 1.5 -592.133 -1280.29
1.5 -480.108 -1280.29 1.5 -368.083 -1280.29 1.5 -256.057 -1280.29 1.5
-144.032 -1280.29 1.5 -32.0066 -1280.29 1.5 80.0187 -1280.29 1.5 192.044
-1280.29 1.5 304.069 -1280.29 1.5 416.094 -1280.29 1.5 528.12 -1280.29
1.5 640.145 -1280.29 1.5 752.17 -1280.29 1.5 864.195 -1280.29 1.5
976.221 -1280.29 1.5 1088.25 -1280.29 1.5 1200.27 -1280.29 1.5 1312.3
-1280.29 1.5 1424.32 -1280.29 1.5 1536.35 -1280.29 1.5 1648.37 -1280.29
1.5 1760.4 -1280.29 1.5 1872.42 -1280.29 1.5 1984.45 -1280.29 1.5
2096.47 -1280.29 1.5 2208.5 -1280.29 1.5 2320.52 -1280.29 1.5 2432.55
-1280.29 1.5 2544.58 -1280.29 1.5 2656.6 -1280.29 1.5 2768.63 -1280.29
1.5 2880.65 -1280.29 1.5 2992.68 -1280.29 1.5 3104.7 -1280.29 1.5
3216.73 -1280.29 1.5 3328.75 -1280.29 1.5 3440.78 -1280.29 1.5 3552.8
-1280.29 1.5 3664.83 -1280.29 1.5 3776.85 -1280.29 1.5 3888.88 -1280.29
1.5 4000.9 -1280.29 1.5 -1488.34 -1200.27 1.5 -1600.36 -1200.27 1.5
-1376.31 -1200.27 1.5 -1264.29 -1200.27 1.5 -1152.26 -1200.27 1.5 -1040.23
-1200.27 1.5 -928.21 -1200.27 1.5 -816.184 -1200.27 1.5 -704.159 -1200.27
1.5 -592.133 -1200.27 1.5 -480.108 -1200.27 1.5 -368.083 -1200.27 1.5
-256.057 -1200.27 1.5 -144.032 -1200.27 1.5 -32.0065 -1200.27 1.5 80.0187
-1200.27 1.5 192.044 -1200.27 1.5 304.069 -1200.27 1.5 416.094 -1200.27
1.5 528.12 -1200.27 1.5 640.145 -1200.27 1.5 752.17 -1200.27 1.5
864.195 -1200.27 1.5 976.221 -1200.27 1.5 1088.25 -1200.27 1.5 1200.27
-1200.27 1.5 1312.3 -1200.27 1.5 1424.32 -1200.27 1.5 1536.35 -1200.27
1.5 1648.37 -1200.27 1.5 1760.4 -1200.27 1.5 1872.42 -1200.27 1.5
1984.45 -1200.27 1.5 2096.47 -1200.27 1.5 2208.5 -1200.27 1.5 2320.52
-1200.27 1.5 2432.55 -1200.27 1.5 2544.58 -1200.27 1.5 2656.6 -1200.27
1.5 2768.63 -1200.27 1.5 2880.65 -1200.27 1.5 2992.68 -1200.27 1.5
3104.7 -1200.27 1.5 3216.73 -1200.27 1.5 3328.75 -1200.27 1.5 3440.78
-1200.27 1.5 3552.8 -1200.27 1.5 3664.83 -1200.27 1.5 3776.85 -1200.27
1.5 3888.88 -1200.27 1.5 4000.9 -1200.27 1.5 -1488.34 -1120.25 1.5
-1600.36 -1120.25 1.5 -1376.31 -1120.25 1.5 -1264.29 -1120.25 1.5 -1152.26
-1120.25 1.5 -1040.23 -1120.25 1.5 -928.21 -1120.25 1.5 -816.184 -1120.25
1.5 -704.159 -1120.25 1.5 -592.133 -1120.25 1.5 -480.108 -1120.25 1.5
-368.083 -1120.25 1.5 -256.057 -1120.25 1.5 -144.032 -1120.25 1.5 -32.0065
-1120.25 1.5 80.0187 -1120.25 1.5 192.044 -1120.25 1.5 304.069 -1120.25
1.5 416.094 -1120.25 1.5 528.12 -1120.25 1.5 640.145 -1120.25 1.5
752.17 -1120.25 1.5 864.195 -1120.25 1.5 976.221 -1120.25 1.5 1088.25
-1120.25 1.5 1200.27 -1120.25 1.5 1312.3 -1120.25 1.5 1424.32 -1120.25
1.5 1536.35 -1120.25 1.5 1648.37 -1120.25 1.5 1760.4 -1120.25 1.5
1872.42 -1120.25 1.5 1984.45 -1120.25 1.5 2096.47 -1120.25 1.5 2208.5
-1120.25 1.5 2320.52 -1120.25 1.5 2432.55 -1120.25 1.5 2544.58 -1120.25
1.5 2656.6 -1120.25 1.5 2768.63 -1120.25 1.5 2880.65 -1120.25 1.5
2992.68 -1120.25 1.5 3104.7 -1120.25 1.5 3216.73 -1120.25 1.5 3328.75
-1120.25 1.5 3440.78 -1120.25 1.5 3552.8 -1120.25 1.5 3664.83 -1120.25
1.5 3776.85 -1120.25 1.5 3888.88 -1120.25 1.5 4000.9 -1120.25 1.5
-1488.34 -1040.23 1.5 -1600.36 -1040.23 1.5 -1376.31 -1040.23 1.5 -1264.29
-1040.23 1.5 -1152.26 -1040.23 1.5 -1040.23 -1040.23 1.5 -928.21 -1040.24
1.5 -984.222 -1040.24 1.5 -816.184 -1040.24 1.5 -872.197 -1040.24 1.5
-704.159 -1040.23 1.5 -760.172 -1040.24 1.5 -592.134 -1040.23 1.5 -648.146
-1040.23 1.5 -480.108 -1040.23 1.5 -536.121 -1040.23 1.5 -368.083 -1040.23
1.5 -424.095 -1040.23 1.5 -256.057 -1040.23 1.5 -312.07 -1040.23 1.5
-144.032 -1040.23 1.5 -200.045 -1040.23 1.5 -32.0067 -1040.23 1.5 -88.0193
-1040.23 1.5 80.0185 -1040.23 1.5 24.0059 -1040.23 1.5 192.044 -1040.23
1.5 136.031 -1040.23 1.5 304.069 -1040.23 1.5 248.056 -1040.23 1.5
416.094 -1040.23 1.5 360.082 -1040.23 1.5 528.119 -1040.23 1.5 472.107
-1040.23 1.5 640.145 -1040.23 1.5 584.132 -1040.23 1.5 752.17 -1040.24
1.5 696.157 -1040.24 1.5 864.195 -1040.24 1.5 808.183 -1040.24 1.5
976.221 -1040.24 1.5 920.208 -1040.24 1.5 1088.25 -1040.24 1.5 1032.23
-1040.24 1.5 1200.27 -1040.24 1.5 1312.3 -1040.24 1.5 1424.32 -1040.24
1.5 1536.35 -1040.24 1.5 1648.37 -1040.24 1.5 1760.4 -1040.24 1.5
1872.42 -1040.24 1.5 1984.45 -1040.24 1.5 2096.47 -1040.24 1.5 2208.5
-1040.24 1.5 2320.52 -1040.24 1.5 2432.55 -1040.24 1.5 2544.58 -1040.24
1.5 2656.6 -1040.24 1.5 2768.63 -1040.24 1.5 2880.65 -1040.24 1.5
2992.68 -1040.24 1.5 3104.7 -1040.24 1.5 3216.73 -1040.24 1.5 3328.75
-1040.24 1.5 3440.78 -1040.24 1.5 3552.8 -1040.24 1.5 3664.83 -1040.24
1.5 3776.85 -1040.24 1.5 3888.88 -1040.24 1.5 4000.9 -1040.24 1.5
-1488.34 -960.216 1.5 -1600.36 -960.216 1.5 -1376.31 -960.216 1.5 -1264.29
-960.217 1.5 -1152.26 -960.217 1.5 -1040.23 -1000.23 1.5 -1040.23 -960.217
1.5 -984.223 -1000.23 1.5 -872.197 -1000.23 1.5 -900.204 -1000.23 1.5
-928.21 -1000.23 1.5 -760.172 -1000.23 1.5 -788.178 -1000.23 1.5 -816.185
-1000.23 1.5 -648.147 -1000.23 1.5 -676.153 -1000.23 1.5 -704.159 -1000.23
1.5 -536.121 -1000.23 1.5 -564.128 -1000.23 1.5 -592.134 -1000.23 1.5
-424.096 -1000.23 1.5 -452.102 -1000.23 1.5 -480.109 -1000.23 1.5 -312.071
-1000.23 1.5 -340.077 -1000.23 1.5 -368.083 -1000.23 1.5 -200.045 -1000.23
1.5 -228.052 -1000.23 1.5 -256.058 -1000.23 1.5 -88.0199 -1000.23 1.5
-116.026 -1000.23 1.5 -144.033 -1000.23 1.5 24.0054 -1000.23 1.5 -4.0009
-1000.23 1.5 -32.0072 -1000.23 1.5 136.031 -1000.23 1.5 108.024 -1000.23
1.5 80.0181 -1000.23 1.5 248.056 -1000.23 1.5 220.05 -1000.23 1.5
[...]
CELL_DATA 27435
FIELD attributes 2
k 1 27435 float
1.16366 0.434586 0.308228 0.274186 0.260826 0.255985 0.253879 0.25096 0.247473 0.245013 0.244822
0.247208 0.254008 0.264415 0.276099 0.286708 0.294611 0.299545 0.302463 0.304004 0.304836
0.305164 0.305346 0.305419 0.305414 0.305325 0.305095 0.304873 0.304544 0.304235 0.303902
0.303644 0.303391 0.303193 0.30306 0.302901 0.302748 0.302605 0.302459 0.302327 0.30222
0.302113 0.302019 0.301941 0.301876 0.301822 0.301793 0.30177 0.301761 0.301731 1.16367
0.434579 0.308227 0.274181 0.260807 0.255983 0.253873 0.250935 0.24746 0.245002 0.244834
0.247236 0.254019 0.264461 0.276157 0.286699 0.294571 0.299532 0.302468 0.30403 0.304893
0.305252 0.305444 0.305491 0.305472 0.30538 0.305144 0.304935 0.304615 0.304307 0.30399
0.303711 0.303454 0.30322 0.302996 0.30282 0.302689 0.302575 0.302462 0.302339 0.302237
0.302145 0.302073 0.301996 0.30193 0.301881 0.301858 0.301858 0.301841 0.30177 1.16367
0.43458 0.308228 0.2742 0.260826 0.255968 0.253847 0.250938 0.247481 0.245025 0.244839
0.247244 0.254043 0.264479 0.276201 0.286687 0.294521 0.299507 0.302455 0.304113 0.305027
0.305413 0.305612 0.305627 0.305552 0.305427 0.305176 0.304997 0.30471 0.304394 0.304048
0.303754 0.303488 0.303247 0.303051 0.302881 0.302733 0.302584 0.302453 0.302338 0.302251
0.302181 0.302127 0.302036 0.301953 0.301881 0.301846 0.301853 0.301834 0.30176 1.16369
0.434564 0.308228 0.274175 0.260738 0.256021 0.253801 0.25085 0.247411 0.244982 0.244871
0.24737 0.254261 0.264603 0.27629 0.28677 0.294585 0.299557 0.30255 0.304199 0.305129
0.305568 0.305741 0.305739 0.305618 0.305522 0.305306 0.305105 0.304814 0.304459 0.304043
0.303704 0.303427 0.303185 0.303 0.302845 0.302699 0.302548 0.30241 0.302308 0.302241
0.302147 0.302049 0.301981 0.301945 0.301879 0.30183 0.301792 0.301789 0.301767 1.16369
0.434561 0.308229 0.274241 0.260817 0.255945 0.253773 0.250843 0.247435 0.245005 0.244915
0.247407 0.25429 0.264633 0.276296 0.286794 0.294615 0.299639 0.302643 0.304264 0.305231
0.305672 0.305876 0.30586 0.305794 0.305593 0.305307 0.30517 0.304898 0.30455 0.304107
0.303735 0.303441 0.303224 0.303047 0.302847 0.302633 0.302448 0.302298 0.30217 0.302074
0.301978 0.301885 0.301807 0.301751 0.301722 0.30171 0.301695 0.301706 0.301691 1.16358
0.434674 0.308138 0.274487 0.260038 0.256364 0.253813 0.250532 0.24707 0.244547 0.244764
0.247515 0.254788 0.264935 0.276642 0.286959 0.294978 0.299914 0.303018 0.304617 0.305578
0.30606 0.306196 0.305983 0.30588 0.305854 0.305751 0.305497 0.305234 0.304805 0.304136
0.303605 0.303257 0.303005 0.302794 0.302595 0.302392 0.302192 0.302024 0.301909 0.301853
0.301832 0.301825 0.301794 0.301747 0.301707 0.301676 0.301669 0.301676 0.301708 1.16384
0.434334 0.308231 0.27436 0.260534 0.25749 0.256482 0.255577 0.252799 0.249797 0.249355
0.251222 0.25784 0.267809 0.278971 0.288811 0.296043 0.299907 0.302275 0.30408 0.305408
0.306355 0.306726 0.306988 0.306293 0.306068 0.305664 0.305679 0.305575 0.305064 0.304129
0.303466 0.303188 0.303163 0.303186 0.303136 0.302934 0.30263 0.302307 0.302029 0.301848
0.301764 0.301739 0.301717 0.301696 0.301667 0.301645 0.301647 0.301662 0.301733 1.16375
0.434654 0.307628 0.274562 0.260548 0.154072 0.25998 0.301365 0.310258 0.315533 0.319629
0.325862 0.33821 0.356117 0.376928 0.397702 0.413489 0.422627 0.42637 0.428237 0.429023
0.429266 0.429266 0.417824 0.636855 0.380813 0.32778 0.317974 0.31483 0.312703 0.309864
0.306953 0.304759 0.303493 0.302899 0.302673 0.302631 0.302588 0.302433 0.302203 0.302026
0.301884 0.301772 0.301688 0.301639 0.301621 0.301625 0.301635 0.301655 0.301691 1.16363
0.434544 0.308411 0.274253 0.257824 0.174588 0.602478 0.609227 0.37008 0.321557 0.314331
0.313003 0.310516 0.307056 0.30378 0.301172 0.299646 0.298953 0.298837 0.299037 0.299673
0.300505 0.301216 0.301632 0.301757 0.301747 0.301688 0.301631 0.301604 0.301592 0.30159
0.301605 0.30163 1.1637 0.434386 0.308592 0.273877 0.257834 0.174439 0.597558 0.609224
0.369954 0.321508 0.314494 0.313143 0.310438 0.306676 0.303235 0.300648 0.299203 0.298603
0.298519 0.298714 0.299327 0.300185 0.300945 0.301406 0.301601 0.301657 0.301663 0.301662
0.301671 0.301696 0.301729 0.301779 0.30178 1.16382 0.434268 0.308661 0.273821 0.2578
0.174435 0.597607 0.609318 0.370095 0.321631 0.314659 0.313304 0.310535 0.306629 0.303152
0.300614 0.299244 0.298723 0.298687 0.298921 0.299535 0.300359 0.30102 0.301379 0.301524
0.301587 0.301633 0.301667 0.301698 0.301722 0.301742 0.301759 0.301762 1.16382 0.434248
0.308664 0.273792 0.257771 0.174415 0.597157 0.609011 0.370053 0.321666 0.314725 0.31333
0.310469 0.306464 0.30293 0.300392 0.299048 0.298544 0.29852 0.298797 0.299463 0.300307
0.300997 0.301379 0.301538 0.301604 0.301636 0.301661 0.301682 0.301722 0.301743 0.301771
0.301783 1.16381 0.434269 0.308655 0.27376 0.257749 0.174419 0.596431 0.6087 0.369933
0.321573 0.314669 0.313265 0.310374 0.306346 0.302831 0.300333 0.299032 0.298545 0.298528
0.298806 0.299491 0.300304 0.300956 0.301333 0.301491 0.301555 0.301584 0.301608 0.301638
0.301674 0.3017 0.301752 0.301764 1.16384 0.43426 0.308618 0.273744 0.25771 0.174421
0.595353 0.608019 0.369768 0.321549 0.314597 0.313169 0.310196 0.306121 0.302563 0.300069
0.298796 0.298344 0.298346 0.298656 0.299372 0.300222 0.300902 0.301276 0.301445 0.301528
0.301577 0.301606 0.30164 0.301659 0.301677 0.301687 0.301697 1.16385 0.434271 0.308594
0.273721 0.257676 0.174421 0.59416 0.607021 0.369598 0.321709 0.314958 0.313504 0.310398
0.306227 0.30264 0.300122 0.298844 0.298372 0.298363 0.298677 0.29941 0.300238 0.300891
0.30125 0.301423 0.301512 0.301564 0.301598 0.301621 0.301637 0.301647 0.301659 0.301689
1.16388 0.434241 0.308571 0.273685 0.257637 0.174428 0.596924 0.623165 0.376312 0.325276
0.316871 0.314956 0.311048 0.306289 0.302387 0.299823 0.298547 0.298122 0.298137 0.298496
0.299269 0.300132 0.300826 0.301224 0.3014 0.301479 0.301523 0.30154 0.30156 0.301582
0.301595 0.301609 0.301646 1.16388 0.434244 0.308538 0.273651 0.2576 0.174437 0.58293
0.592565 0.360868 0.315417 0.310198 0.309614 0.307638 0.304306 0.301396 0.29927 0.298275
0.297971 0.29805 0.298512 0.299339 0.300215 0.30089 0.301256 0.301418 0.301492 0.301536
0.301559 0.301574 0.301579 0.301575 0.301572 0.301597 1.16389 0.434236 0.308504 0.273626
0.257566 0.174453 0.136903 0.573906 0.605675 0.369492 0.324706 0.318945 0.317406 0.314168
0.309183 0.304465 0.301069 0.299183 0.298396 0.298289 0.298556 0.299243 0.300059 0.300751
0.301179 0.301388 0.301481 0.301526 0.301537 0.301536 0.301535 0.301539 0.301549 0.301604
1.16386 0.43427 0.308454 0.273621 0.257539 0.17447 0.6513 0.664107 0.393497 0.335381
0.32122 0.316248 0.310953 0.305462 0.301857 0.299659 0.298751 0.29851 0.298537 0.298853
0.29954 0.300313 0.300922 0.301261 0.301418 0.301481 0.301504 0.30151 0.301512 0.301512
0.301514 0.301526 0.30159 1.1638 0.434353 0.308373 0.273661 0.257525 0.174489 0.581055
0.489567 0.300329 0.263621 0.263271 0.270217 0.27914 0.285753 0.290583 0.293806 0.29562
0.296602 0.297482 0.298486 0.299483 0.300324 0.300912 0.30123 0.301371 0.301444 0.301483
0.301494 0.301496 0.301499 0.301511 0.301522 0.301578 1.16381 0.434357 0.30836 0.273679
0.257512 0.174489 0.50413 0.457664 0.300264 0.278065 0.283122 0.293029 0.298791 0.300698
0.300565 0.299599 0.298884 0.298582 0.298581 0.298847 0.299511 0.300281 0.300913 0.301269
0.301427 0.301495 0.301522 0.30152 0.301508 0.301506 0.301514 0.301522 0.301572 1.16382
0.43433 0.3084 0.273667 0.257523 0.174488 0.41771 0.528456 0.331561 0.301184 0.30228
0.305013 0.306114 0.304896 0.302248 0.30017 0.298914 0.29838 0.298323 0.298597 0.299281
0.30007 0.300761 0.301186 0.301385 0.301483 0.301542 0.301566 0.301571 0.301571 0.301571
0.301573 0.301611 1.16389 0.434246 0.308488 0.273626 0.257543 0.174472 0.726395 0.671434
0.387577 0.32958 0.317243 0.314285 0.31055 0.3062 0.30249 0.299943 0.298688 0.298231
0.298237 0.298597 0.299339 0.30016 0.300818 0.301208 0.301401 0.301502 0.301552 0.301573
0.301586 0.301595 0.301599 0.301598 0.301626 1.16388 0.434253 0.308517 0.273667 0.257572
0.174459 0.629971 0.614017 0.378115 0.329182 0.320238 0.316639 0.311436 0.306144 0.302146
0.299608 0.29841 0.298047 0.298085 0.298467 0.299244 0.300098 0.300791 0.301205 0.30139
0.301469 0.301515 0.301541 0.301565 0.301583 0.301592 0.301601 0.301628 1.16389 0.434255
0.30855 0.273679 0.25762 0.174436 0.58339 0.602708 0.367939 0.321353 0.314672 0.313303
0.309995 0.305708 0.302219 0.299793 0.298635 0.298238 0.298257 0.298606 0.299364 0.300207
0.300863 0.301237 0.301426 0.301522 0.301561 0.301574 0.301595 0.301622 0.301634 0.301639
0.301648 1.1639 0.434233 0.308603 0.273675 0.25766 0.174432 0.598499 0.607669 0.369345
0.320862 0.314053 0.312557 0.309635 0.305713 0.302311 0.299901 0.298714 0.298295 0.298306
0.298628 0.299351 0.300186 0.300864 0.301239 0.301411 0.301502 0.301561 0.301585 0.301607
0.301621 0.301638 0.301669 0.301697 1.1639 0.43424 0.308618 0.273721 0.257693 0.17442
0.597523 0.607107 0.36935 0.321412 0.314515 0.313089 0.310137 0.306101 0.302621 0.300149
0.29889 0.298425 0.298415 0.298725 0.299447 0.300275 0.300938 0.301321 0.301479 0.301545
0.301572 0.301586 0.30161 0.301664 0.301711 0.301764 0.301851 1.16391 0.434245 0.30865
0.273711 0.257732 0.174422 0.599131 0.60852 0.369732 0.32142 0.314543 0.313118 0.310263
0.30629 0.302805 0.300303 0.298997 0.298524 0.298514 0.298789 0.299455 0.300278 0.300946
0.301327 0.301479 0.301547 0.301589 0.301627 0.301665 0.301707 0.301733 0.301758 0.301753
1.16386 0.434243 0.30865 0.273766 0.257754 0.174403 0.599411 0.608945 0.369968 0.321604
0.314666 0.313273 0.310443 0.306465 0.302964 0.300441 0.299093 0.298593 0.298578 0.298854
0.299528 0.300342 0.301007 0.301393 0.301551 0.301606 0.301635 0.301654 0.301687 0.301723
0.301758 0.301802 0.301796 1.16383 0.434266 0.308648 0.273792 0.257785 0.17442 0.600021
0.609499 0.37013 0.321643 0.314658 0.313299 0.310544 0.306637 0.303156 0.300605 0.299227
0.298706 0.298677 0.298916 0.299537 0.300352 0.30104 0.301428 0.301581 0.301619 0.301612
0.301585 0.301576 0.30159 0.301626 0.301689 0.301771 1.1637 0.434392 0.308576 0.273867
0.257817 0.174416 0.600014 0.609497 0.370005 0.321501 0.314482 0.31314 0.310445 0.306682
0.303254 0.300676 0.299231 0.298635 0.29856 0.298758 0.299362 0.300216 0.300976 0.301444
0.301642 0.301694 0.301685 0.301643 0.301615 0.301611 0.301622 0.301661 0.301735 1.16362
0.434553 0.308395 0.274247 0.257809 0.174366 0.600677 0.609536 0.370203 0.321617 0.314371
0.313046 0.310548 0.307071 0.303791 0.301176 0.299641 0.298953 0.298832 0.299022 0.299654
0.300502 0.30122 0.301624 0.301735 0.301726 0.301685 0.301648 0.301626 0.301611 0.30161
0.301626 0.301664 1.16372 0.434659 0.307629 0.274556 0.260528 0.151549 0.315501 0.373432
0.373304 0.375734 0.379455 0.38629 0.399744 0.419534 0.443757 0.469034 0.489808 0.502908
0.509411 0.512203 0.513045 0.513317 0.515137 0.637447 0.637122 0.380894 0.32782 0.318005
0.314853 0.312732 0.309883 0.306962 0.304771 0.303513 0.30293 0.302717 0.302659 0.302596
0.302436 0.302224 0.302051 0.301901 0.301772 0.301696 0.301666 0.301662 0.301671 0.301672
0.301683 0.30168 1.16382 0.434336 0.308229 0.274376 0.260506 0.257485 0.256465 0.25558
0.252744 0.249868 0.249407 0.251417 0.257956 0.268155 0.2791 0.289075 0.296181 0.300131
0.302356 0.304186 0.305517 0.306458 0.306828 0.307034 0.306357 0.306147 0.305723 0.305713
0.305603 0.305084 0.304144 0.303497 0.303226 0.303194 0.303203 0.303141 0.302937 0.302646
0.302321 0.302023 0.301833 0.301743 0.301698 0.301668 0.301658 0.301658 0.301664 0.301679
0.301687 0.301712 1.16356 0.434672 0.308151 0.274473 0.260032 0.256381 0.25376 0.250568
0.246997 0.244577 0.244709 0.247524 0.254703 0.264997 0.276579 0.287014 0.294978 0.29995
0.303059 0.304697 0.30569 0.306176 0.306305 0.306069 0.305986 0.305922 0.305794 0.305529
0.305278 0.304829 0.304147 0.303626 0.303293 0.303041 0.302814 0.302602 0.302401 0.302203
0.302047 0.301959 0.301908 0.301849 0.301797 0.301759 0.301715 0.30168 0.301652 0.301641
0.301643 0.301665 1.16366 0.434557 0.308243 0.274225 0.260802 0.255952 0.253764 0.250833
0.247426 0.244994 0.244894 0.247403 0.254273 0.264621 0.276319 0.286805 0.294664 0.299663
0.302693 0.304328 0.30532 0.305751 0.305965 0.305957 0.305889 0.305659 0.305376 0.30523
0.304928 0.304582 0.30413 0.303745 0.303464 0.303251 0.303065 0.302857 0.302648 0.302474
0.302317 0.30216 0.302074 0.302017 0.301942 0.301856 0.301799 0.301765 0.301716 0.301672
0.301669 0.301666 1.16366 0.43456 0.308244 0.274161 0.260725 0.256021 0.253797 0.250849
0.24739 0.244962 0.244853 0.247359 0.254244 0.264587 0.276307 0.286761 0.294612 0.299599
0.302627 0.304277 0.305211 0.305653 0.305825 0.305827 0.305708 0.305582 0.305356 0.305159
0.304847 0.3045 0.304081 0.303715 0.303445 0.303221 0.303038 0.302876 0.302722 0.302572
0.302447 0.302326 0.302216 0.302126 0.302064 0.301993 0.301943 0.301913 0.30188 0.301808
0.301778 0.301724 1.16364 0.434579 0.308245 0.274185 0.260817 0.25596 0.253855 0.250931
0.247463 0.245015 0.244832 0.247234 0.254046 0.264468 0.276233 0.286693 0.294584 0.299567
0.302548 0.304181 0.305098 0.305501 0.305689 0.305701 0.305606 0.305492 0.305242 0.305044
0.304755 0.304434 0.304096 0.303798 0.303509 0.303272 0.303064 0.302879 0.302735 0.302598
0.302472 0.302366 0.302267 0.302171 0.302093 0.30202 0.30198 0.301936 0.301893 0.301861
0.301803 0.301732 1.16364 0.434578 0.30824 0.274165 0.260805 0.255981 0.253868 0.250924
0.247458 0.245003 0.244823 0.247221 0.254019 0.264446 0.276183 0.286707 0.294637 0.299587
0.302517 0.30408 0.304962 0.305317 0.305508 0.305555 0.305528 0.305429 0.305179 0.30495
0.304625 0.304304 0.303988 0.303725 0.303452 0.303229 0.303031 0.30286 0.302706 0.302587
0.302485 0.302355 0.302244 0.302158 0.302095 0.302029 0.301983 0.301911 0.30186 0.301834
0.301803 0.301727 1.16363 0.434586 0.30824 0.27417 0.260825 0.255979 0.25388 0.250952
0.247466 0.245007 0.244809 0.247206 0.254019 0.264423 0.276119 0.286715 0.294626 0.299566
0.302524 0.304089 0.304936 0.305258 0.305411 0.305475 0.305472 0.305375 0.305121 0.304883
0.304558 0.304241 0.303934 0.303664 0.303407 0.303201 0.303044 0.302895 0.302753 0.302603
0.302482 0.302375 0.302242 0.302122 0.302045 0.301966 0.301899 0.301876 0.301871 0.301883
0.301866 0.301787 0.0550582 0.234603 0.223632 0.122301 0.061318 0.100568 0.158886 0.215289
0.0129979 0.325432 0.12887 0.13163 0.136027 0.320687 0.137022 0.136835 0.243491 0.0396961
0.186643 0.0231147 0.136191 0.713298 0.085134 0.115428 0.406492 0.396547 0.911401 0.197399
1.78927 1.80428 0.533062 0.210524 0.282225 0.419487 0.207579 0.604024 0.204064 0.396508
0.561969 0.27031 1.56821 0.804367 0.672252 0.0712651 0.248403 0.440535 0.249966 0.0338573
0.278657 0.30077 0.223702 0.438134 0.110432 0.553916 1.34686 1.34027 0.582398 0.093031
0.564308 0.279432 0.220611 0.235782 0.721938 1.00775 0.922699 0.404585 0.20807 0.193163
0.522834 0.0591941 0.219332 0.120434 1.68094 0.730734 1.74966 0.331064 0.705734 0.564641
0.580028 1.81175 1.7535 0.482489 0.147265 0.136516 0.185998 0.0725478 0.476545 0.406423
1.37001 0.123572 0.380914 0.0973428 0.603729 0.156157 0.0310505 0.286104 0.0299573 0.342141
0.121402 0.712292 0.247596 0.640768 1.54465 1.48801 1.35294 1.4895 1.62622 0.615199
1.58417 0.0572729 0.178437 0.294323 0.336326 0.396906 1.3703 0.452566 0.532594 1.35649
1.21599 0.836711 1.33868 0.394137 1.82482 1.71448 1.51435 1.78353 0.411639 0.593249
0.156589 0.0711786 0.107635 0.317801 0.0641595 0.771402 0.468887 0.40369 0.23901 0.785828
0.341011 1.21165 0.215162 0.47433 0.158217 0.246047 0.142727 0.0507127 0.128148 0.108965
0.719768 0.726774 0.30861 0.121927 0.110583 0.365886 0.551154 1.88377 0.884099 0.495332
0.0152396 0.124481 0.834675 0.178095 0.0542449 0.166926 0.15279 0.0854356 0.184526 0.786488
0.534125 0.111535 0.269235 0.119103 0.48126 0.353138 0.060417 0.644765 1.17704 0.783685
0.995908 0.327039 0.652031 0.98491 1.30681 1.38174 1.26186 1.37002 0.717578 0.384376
0.618154 1.4521 1.29709 1.42921 0.0580857 0.031944 0.149878 1.26268 0.278559 0.131297
0.182595 0.635635 0.387642 0.211114 0.893818 0.0861244 0.103256 0.0734386 0.169671 0.0149321
0.47288 0.378825 0.22002 0.353599 0.171838 0.00870042 0.11169 0.352123 0.32967 0.438982
0.079828 0.154655 1.15981 0.677183 0.493535 0.435615 0.473258 0.605352 0.278629 0.128995
1.05607 0.450239 0.401119 1.81904 0.332372 2.14615 0.351738 1.51958 0.833683 0.794076
0.221699 0.221699 0.0810203 1.34272 1.09526 0.113644 1.3634 0.454626 0.321822 0.570541
0.333511 0.0325389 0.0210016 0.316222 0.429083 0.479223 0.136525 0.567253 1.4828 1.22233
1.31322 0.319306 0.682965 0.889725 1.24323 0.360735 0.28808 1.00461 0.102864 0.152433
0.755161 0.602833 0.325699 0.636135 1.2538 0.15988 0.948058 0.78665 0.997946 0.237794
0.881572 0.244685 0.251552 0.207539 0.552252 0.0384328 1.04949 0.031857 0.154394 0.550361
0.182599 0.311679 0.385381 0.309921 0.12666 0.167608 0.192379 0.0394445 0.0443876 0.0945381
0.0795664 0.110263 0.302664 0.101999 0.442297 0.244229 0.19209 0.236615 0.39068 0.301683
0.396583 0.550883 0.946967 1.36278 0.388783 1.7373 0.12654 0.273232 1.47176 0.967907
0.254483 0.265731 0.405444 1.08215 0.610647 0.457506 0.415514 0.306322 0.39194 0.222939
0.414004 0.28685 0.628919 0.0418846 0.213247 0.13088 0.0425526 0.121427 0.0527747 0.176763
0.097385 0.116404 0.119376 0.0737303 0.110043 0.513854 1.24789 0.162978 1.32327 0.63651
1.26032 0.454339 0.20564 0.0536989 0.425035 0.611914 0.392279 0.0627817 0.11648 0.0983099
0.135816 0.483667 0.116475 0.327225 0.0506891 0.0497335 0.0902994 0.170781 0.165524 0.153283
0.331202 0.28185 0.031953 0.0283611 1.40189 1.38112 1.36863 1.40512 0.155043 0.348378
0.259288 0.398156 0.376561 0.584298 0.758169 0.396164 0.164001 0.18363 0.83236 0.905417
0.370535 0.32987 0.624984 0.431751 0.733049 0.249219 0.637746 1.41709 1.38034 1.2106
0.58333 1.09593 1.32343 0.486035 0.828372 0.777905 0.406395 0.190111 0.129793 0.259037
0.961925 0.846355 0.241715 0.10149 0.184521 0.393759 0.809346 1.601 0.619196 1.46862
0.975034 0.389071 0.6624 1.23012 0.342153 0.7541 0.848748 0.762145 0.707053 1.1767
0.347994 0.884767 0.250754 0.580003 0.538926 1.47986 0.635127 1.68018 0.881667 0.939897
1.11457 0.776755 0.969964 1.41896 1.4117 1.51243 0.62276 0.980198 0.963593 0.700329
1.54907 1.63159 0.746742 0.383211 0.890957 1.31107 0.445787 0.74864 1.40511 1.34321
0.820292 0.938852 0.439477 0.719886 0.436701 0.370181 0.329339 0.306395 0.0665553 1.54468
1.33999 1.39189 0.72723 1.22746 0.919572 0.57233 0.417508 0.192901 0.966494 0.455333
1.33327 1.48227 0.737384 0.859455 1.54812 1.58203 1.26863 0.807357 0.623773 1.43067
1.33623 0.194101 0.661816 0.647691 1.44798 1.16367 0.246376 1.45444 0.731289 0.388636
0.273852 0.223757 0.274084 0.103715 0.278945 0.49569 0.202862 0.388191 0.146423 0.0871542
0.119469 0.142029 0.310913 0.146236 0.297507 0.0256483 0.048936 0.229693 1.05777 0.0702064
0.928429 0.485862 0.85118 1.37867 1.39919 1.13383 0.234324 0.578527 0.19951 0.87617
0.479633 0.1076 0.275307 1.05076 0.264871 0.942325 0.380453 1.4414 1.59917 0.934256
1.47589 1.24938 0.579846 0.530647 0.191997 0.132974 0.102071 0.128899 0.114803 0.170075
1.29049 0.402063 0.284782 1.27383 1.02705 0.106461 0.302565 0.338706 0.268206 0.399851
0.556682 1.17 1.53424 1.5451 1.00616 0.494817 0.61365 1.28424 0.298337 0.0886407
0.388842 1.42414 1.58838 1.61791 0.558607 1.26586 1.1341 0.430531 1.53798 0.596338
1.32461 1.51416 1.53984 0.966866 0.966866 1.45459 1.33395 0.949292 1.62806 1.39176
0.272461 1.10991 1.38455 0.718765 0.106426 0.22071 0.436414 0.365907 0.436597 0.629203
0.965523 0.337803 0.4523 0.370776 0.272002 0.155515 1.83206 0.585634 1.77617 1.32455
1.80181 0.83143 0.821309 1.78305 1.05425 1.38562 1.58273 0.505177 0.465925 0.520516
1.59842 0.8826 1.77007 0.870297 1.22893 0.313203 1.06386 0.241652 0.308136 0.468861
0.0923284 0.304623 0.38374 0.175096 0.434271 0.578751 0.486427 0.721636 1.102 0.608787
1.03312 1.02424 0.180094 0.143264 0.0869164 0.771776 0.279479 0.93494 0.187741 0.314934
0.249492 0.214747 0.21035 1.4675 0.164633 0.616 1.44801 1.45715 1.26843 0.953388