# vtk DataFile Version 2.0
sampleSurface
ASCII
DATASET POLYDATA
POINTS 9875 float
-1324.36 -1350.27 10 -1424.05 -1350.27 10 -1424.05 -1421.34 10 -1324.36 -1421.34
10 -1224.68 -1350.27 10 -1224.68 -1421.34 10 -1125 -1350.27 10
-1125 -1421.34 10 -1025.31 -1350.27 10 -1025.31 -1421.34 10 -925.631
-1350.27 10 -925.631 -1421.34 10 -825.947 -1350.27 10 -825.947 -1421.34
10 -726.264 -1350.27 10 -726.264 -1421.34 10 -626.581 -1350.27 10
-626.581 -1421.34 10 -526.898 -1350.27 10 -526.898 -1421.34 10 -427.214
-1350.27 10 -427.214 -1421.34 10 -327.531 -1350.27 10 -327.531 -1421.34
10 -227.848 -1350.27 10 -227.848 -1421.34 10 -128.164 -1350.27 10
-128.164 -1421.34 10 -28.4812 -1350.27 10 -28.4812 -1421.34 10 71.2021
-1350.27 10 71.2021 -1421.34 10 170.885 -1350.27 10 170.885 -1421.34
10 270.569 -1350.27 10 270.569 -1421.34 10 370.252 -1350.27 10
370.252 -1421.34 10 469.935 -1350.27 10 469.935 -1421.34 10 569.619
-1350.27 10 569.619 -1421.34 10 669.302 -1350.27 10 669.302 -1421.34
10 768.985 -1350.27 10 768.985 -1421.34 10 868.669 -1350.27 10
868.669 -1421.34 10 968.352 -1350.27 10 968.352 -1421.34 10 1068.04
-1350.27 10 1068.04 -1421.34 10 1167.72 -1350.27 10 1167.72 -1421.34
10 1267.4 -1350.27 10 1267.4 -1421.34 10 1367.09 -1350.27 10
1367.09 -1421.34 10 1466.77 -1350.27 10 1466.77 -1421.34 10 1566.45
-1350.27 10 1566.45 -1421.34 10 1666.14 -1350.27 10 1666.14 -1421.34
10 1765.82 -1350.27 10 1765.82 -1421.34 10 1865.5 -1350.27 10
1865.5 -1421.34 10 1965.19 -1350.27 10 1965.19 -1421.34 10 2064.87
-1350.27 10 2064.87 -1421.34 10 2164.55 -1350.27 10 2164.55 -1421.34
10 2264.24 -1350.27 10 2264.24 -1421.34 10 2363.92 -1350.27 10
2363.92 -1421.34 10 2463.6 -1350.27 10 2463.6 -1421.34 10 2563.29
-1350.27 10 2563.29 -1421.34 10 2662.97 -1350.27 10 2662.97 -1421.34
10 2762.65 -1350.27 10 2762.65 -1421.34 10 2862.34 -1350.27 10
2862.34 -1421.34 10 2962.02 -1350.27 10 2962.02 -1421.34 10 3061.7
-1350.27 10 3061.7 -1421.34 10 3161.39 -1350.27 10 3161.39 -1421.34
10 3261.07 -1350.27 10 3261.07 -1421.34 10 3360.75 -1350.27 10
3360.75 -1421.34 10 3460.44 -1350.27 10 3460.44 -1421.34 10 3560.12
-1421.34 10 3560.12 -1350.27 10 -1324.36 -1279.2 10 -1424.05 -1279.2
10 -1224.68 -1279.2 10 -1125 -1279.2 10 -1025.31 -1279.2 10
-925.631 -1279.2 10 -825.947 -1279.2 10 -726.264 -1279.2 10 -626.581
-1279.2 10 -526.898 -1279.2 10 -427.214 -1279.2 10 -327.531 -1279.2
10 -227.848 -1279.2 10 -128.164 -1279.2 10 -28.4812 -1279.2 10
71.2021 -1279.2 10 170.885 -1279.2 10 270.569 -1279.2 10 370.252
-1279.2 10 469.935 -1279.2 10 569.619 -1279.2 10 669.302 -1279.2
10 768.985 -1279.2 10 868.669 -1279.2 10 968.352 -1279.2 10
1068.04 -1279.2 10 1167.72 -1279.2 10 1267.4 -1279.2 10 1367.09
-1279.2 10 1466.77 -1279.2 10 1566.45 -1279.2 10 1666.14 -1279.2
10 1765.82 -1279.2 10 1865.5 -1279.2 10 1965.19 -1279.2 10
2064.87 -1279.2 10 2164.55 -1279.2 10 2264.24 -1279.2 10 2363.92
-1279.2 10 2463.6 -1279.2 10 2563.29 -1279.2 10 2662.97 -1279.2
10 2762.65 -1279.2 10 2862.34 -1279.2 10 2962.02 -1279.2 10
3061.7 -1279.2 10 3161.39 -1279.2 10 3261.07 -1279.2 10 3360.75
-1279.2 10 3460.44 -1279.2 10 3560.12 -1279.2 10 -1324.36 -1208.14
10 -1424.05 -1208.14 10 -1224.68 -1208.14 10 -1125 -1208.14 10
-1025.31 -1208.14 10 -925.631 -1208.14 10 -825.947 -1208.14 10 -726.264
-1208.14 10 -626.581 -1208.14 10 -526.898 -1208.14 10 -427.214 -1208.14
10 -327.531 -1208.14 10 -227.848 -1208.14 10 -128.164 -1208.14 10
-28.4812 -1208.14 10 71.2021 -1208.14 10 170.885 -1208.14 10 270.569
-1208.14 10 370.252 -1208.14 10 469.935 -1208.14 10 569.619 -1208.14
10 669.302 -1208.14 10 768.985 -1208.14 10 868.669 -1208.14 10
968.352 -1208.14 10 1068.04 -1208.14 10 1167.72 -1208.14 10 1267.4
-1208.14 10 1367.09 -1208.14 10 1466.77 -1208.14 10 1566.45 -1208.14
10 1666.14 -1208.14 10 1765.82 -1208.14 10 1865.5 -1208.14 10
1965.19 -1208.14 10 2064.87 -1208.14 10 2164.55 -1208.14 10 2264.24
-1208.14 10 2363.92 -1208.14 10 2463.6 -1208.14 10 2563.29 -1208.14
10 2662.97 -1208.14 10 2762.65 -1208.14 10 2862.34 -1208.14 10
2962.02 -1208.14 10 3061.7 -1208.14 10 3161.39 -1208.14 10 3261.07
-1208.14 10 3360.75 -1208.14 10 3460.44 -1208.14 10 3560.12 -1208.14
10 -1324.36 -1137.07 10 -1424.05 -1137.07 10 -1224.68 -1137.07 10
-1125 -1137.07 10 -1025.31 -1137.07 10 -925.631 -1137.07 10 -825.947
-1137.07 10 -726.264 -1137.07 10 -626.581 -1137.07 10 -526.898 -1137.07
10 -427.214 -1137.07 10 -327.531 -1137.07 10 -227.848 -1137.07 10
-128.164 -1137.07 10 -28.4812 -1137.07 10 71.2021 -1137.07 10 170.885
-1137.07 10 270.569 -1137.07 10 370.252 -1137.07 10 469.935 -1137.07
10 569.619 -1137.07 10 669.302 -1137.07 10 768.985 -1137.07 10
868.669 -1137.07 10 968.352 -1137.07 10 1068.04 -1137.07 10 1167.72
-1137.07 10 1267.4 -1137.07 10 1367.09 -1137.07 10 1466.77 -1137.07
10 1566.45 -1137.07 10 1666.14 -1137.07 10 1765.82 -1137.07 10
1865.5 -1137.07 10 1965.19 -1137.07 10 2064.87 -1137.07 10 2164.55
-1137.07 10 2264.24 -1137.07 10 2363.92 -1137.07 10 2463.6 -1137.07
10 2563.29 -1137.07 10 2662.97 -1137.07 10 2762.65 -1137.07 10
2862.34 -1137.07 10 2962.02 -1137.07 10 3061.7 -1137.07 10 3161.39
-1137.07 10 3261.07 -1137.07 10 3360.75 -1137.07 10 3460.44 -1137.07
10 3560.12 -1137.07 10 -1324.36 -1066 10 -1424.05 -1066 10
-1224.68 -1066 10 -1125 -1066 10 -1025.31 -1066 10 -925.631
-1066 10 -825.947 -1066 10 -726.264 -1066 10 -626.581 -1066
10 -526.898 -1066 10 -427.214 -1066 10 -327.531 -1066 10
-227.848 -1066 10 -128.164 -1066 10 -28.4812 -1066 10 71.202
-1066 10 170.885 -1066 10 270.569 -1066 10 370.252 -1066
10 469.935 -1066 10 569.619 -1066 10 669.302 -1066 10
768.985 -1066 10 868.669 -1066 10 968.352 -1066 10 1068.04
-1066 10 1167.72 -1066 10 1267.4 -1066 10 1367.09 -1066
10 1466.77 -1066 10 1566.45 -1066 10 1666.14 -1066 10
1765.82 -1066 10 1865.5 -1066 10 1965.19 -1066 10 2064.87
-1066 10 2164.55 -1066 10 2264.24 -1066 10 2363.92 -1066
10 2463.6 -1066 10 2563.29 -1066 10 2662.97 -1066 10
2762.65 -1066 10 2862.34 -1066 10 2962.02 -1066 10 3061.7
-1066 10 3161.39 -1066 10 3261.07 -1066 10 3360.75 -1066
10 3460.44 -1066 10 3560.12 -1066 10 -1324.36 -994.936 10
-1424.05 -994.936 10 -1224.68 -994.936 10 -1125 -994.936 10 -1025.31
-994.936 10 -925.631 -994.936 10 -825.947 -994.936 10 -726.264 -994.936
10 -626.581 -994.936 10 -526.898 -994.936 10 -427.214 -994.936 10
-327.531 -994.936 10 -227.848 -994.936 10 -128.164 -994.936 10 -28.4812
-994.936 10 71.202 -994.936 10 170.885 -994.936 10 270.569 -994.936
10 370.252 -994.936 10 469.935 -994.936 10 569.619 -994.936 10
669.302 -994.936 10 768.985 -994.936 10 868.669 -994.936 10 968.352
-994.936 10 1068.04 -994.936 10 1167.72 -994.936 10 1267.4 -994.936
10 1367.08 -994.936 10 1466.77 -994.936 10 1566.45 -994.936 10
1666.14 -994.936 10 1765.82 -994.936 10 1865.5 -994.936 10 1965.19
-994.936 10 2064.87 -994.936 10 2164.55 -994.936 10 2264.24 -994.936
10 2363.92 -994.936 10 2463.6 -994.936 10 2563.29 -994.936 10
2662.97 -994.936 10 2762.65 -994.936 10 2862.34 -994.936 10 2962.02
-994.936 10 3061.7 -994.936 10 3161.39 -994.936 10 3261.07 -994.936
10 3360.75 -994.936 10 3460.44 -994.936 10 3560.12 -994.936 10
-1324.36 -923.869 10 -1424.05 -923.869 10 -1224.68 -923.869 10 -1125
-923.869 10 -1025.31 -923.869 10 -925.631 -923.869 10 -825.947 -923.869
10 -875.789 -923.869 10 -726.264 -923.869 10 -776.106 -923.869 10
-626.581 -923.869 10 -676.422 -923.869 10 -526.897 -923.869 10 -576.739
-923.869 10 -427.214 -923.869 10 -477.056 -923.869 10 -327.531 -923.869
10 -377.373 -923.869 10 -227.848 -923.869 10 -277.689 -923.869 10
-128.164 -923.869 10 -178.006 -923.869 10 -28.4812 -923.869 10 -78.3228
-923.869 10 71.202 -923.869 10 21.3604 -923.869 10 170.885 -923.869
10 121.044 -923.869 10 270.568 -923.869 10 220.727 -923.869 10
370.252 -923.869 10 320.41 -923.869 10 469.935 -923.869 10 420.093
-923.869 10 569.619 -923.869 10 519.777 -923.869 10 669.302 -923.869
10 619.46 -923.869 10 768.985 -923.869 10 719.144 -923.869 10
868.669 -923.869 10 818.827 -923.869 10 968.352 -923.869 10 1068.04
-923.869 10 1167.72 -923.869 10 1267.4 -923.869 10 1367.08 -923.869
10 1466.77 -923.869 10 1566.45 -923.869 10 1666.13 -923.869 10
1765.82 -923.869 10 1865.5 -923.869 10 1965.19 -923.869 10 2064.87
-923.869 10 2164.55 -923.869 10 2264.24 -923.869 10 2363.92 -923.869
10 2463.6 -923.869 10 2563.29 -923.869 10 2662.97 -923.869 10
2762.65 -923.869 10 2862.34 -923.869 10 2962.02 -923.869 10 3061.7
-923.869 10 3161.39 -923.869 10 3261.07 -923.869 10 3360.75 -923.869
10 3460.44 -923.869 10 3560.12 -923.869 10 -1324.36 -852.802 10
-1424.05 -852.802 10 -1224.68 -852.802 10 -1125 -852.802 10 -1025.31
-852.802 10 -925.631 -888.336 10 -925.631 -852.802 10 -875.789 -888.336
10 -776.106 -888.336 10 -825.947 -888.336 10 -676.422 -888.336 10
-726.264 -888.336 10 -576.739 -888.336 10 -626.581 -888.336 10 -477.056
-888.336 10 -526.897 -888.336 10 -377.373 -888.336 10 -427.214 -888.336
10 -277.689 -888.336 10 -327.531 -888.336 10 -178.006 -888.336 10
-227.848 -888.336 10 -78.3227 -888.336 10 -128.164 -888.336 10 21.3606
-888.335 10 -28.481 -888.336 10 121.044 -888.335 10 71.2022 -888.335
10 220.727 -888.335 10 170.885 -888.335 10 320.41 -888.336 10
270.569 -888.336 10 420.094 -888.336 10 370.252 -888.336 10 519.777
-888.336 10 469.935 -888.336 10 619.46 -888.336 10 569.619 -888.336
10 719.144 -888.336 10 669.302 -888.336 10 818.827 -888.336 10
768.985 -888.336 10 968.352 -852.802 10 918.511 -852.802 10 868.669
-852.802 10 868.669 -888.336 10 1068.04 -852.802 10 1167.72 -852.802
10 1267.4 -852.802 10 1367.08 -852.802 10 1466.77 -852.802 10
1566.45 -852.802 10 1666.13 -852.802 10 1765.82 -852.802 10 1865.5
-852.802 10 1965.18 -852.802 10 2064.87 -852.802 10 2164.55 -852.802
10 2264.24 -852.802 10 2363.92 -852.802 10 2463.6 -852.802 10
2563.29 -852.802 10 2662.97 -852.802 10 2762.65 -852.802 10 2862.34
-852.802 10 2962.02 -852.802 10 3061.7 -852.802 10 3161.39 -852.802
10 3261.07 -852.802 10 3360.75 -852.802 10 3460.44 -852.802 10
3560.12 -852.802 10 -1324.36 -781.735 10 -1424.05 -781.735 10 -1224.68
[...]
CELL_DATA 9319
FIELD attributes 2
k 1 9319 float
2.10339 1.41733 1.26633 1.18777 1.14289 1.11696 1.10076 1.08327 1.05692 1.03148 1.00884
0.990062 0.980719 0.981807 0.997799 1.03802 1.09122 1.15131 1.20891 1.25577 1.28957
1.31136 1.32419 1.33086 1.33477 1.33686 1.33796 1.33755 1.33621 1.33461 1.33282
1.33078 1.32894 1.3273 1.32584 1.32457 1.3235 1.32256 1.32174 1.32094 1.32027
1.31972 1.31934 1.31882 1.31833 1.31785 1.31751 1.31716 1.31687 1.31662 2.1034
1.41734 1.26634 1.18782 1.14285 1.11692 1.10076 1.08338 1.05686 1.03115 1.00863
0.989936 0.980725 0.981866 0.998103 1.0385 1.09123 1.15099 1.20877 1.256 1.28992
1.31159 1.32435 1.33107 1.33503 1.33712 1.33816 1.33769 1.33643 1.33502 1.33323
1.33116 1.32906 1.32719 1.32567 1.32444 1.32349 1.32266 1.32192 1.32118 1.32053
1.31988 1.31929 1.31867 1.31822 1.31779 1.31762 1.31732 1.31701 1.31655 2.10337
1.4174 1.26634 1.18778 1.14291 1.11702 1.10069 1.08318 1.05668 1.03104 1.0088
0.98995 0.980686 0.981845 0.998306 1.03919 1.09173 1.15099 1.20826 1.25557 1.28992
1.31234 1.32542 1.33225 1.33606 1.33777 1.33841 1.33792 1.33702 1.33587 1.33417
1.33193 1.32971 1.3277 1.32603 1.32476 1.32378 1.32284 1.32197 1.3211 1.32041
1.31976 1.31926 1.31864 1.31816 1.3177 1.31736 1.31703 1.31683 1.31658 2.10337
1.41746 1.2664 1.188 1.14271 1.11686 1.10073 1.08362 1.05646 1.02999 1.00764
0.989491 0.980956 0.982421 0.999305 1.04001 1.09228 1.15126 1.20841 1.25587 1.29028
1.31293 1.3261 1.33304 1.33672 1.33818 1.3386 1.33817 1.33765 1.33669 1.33491
1.33253 1.32996 1.32756 1.32576 1.32448 1.32342 1.32237 1.32151 1.32069 1.31996
1.31922 1.3187 1.31821 1.31795 1.3177 1.31735 1.31707 1.31681 1.31649 2.10329
1.41765 1.26637 1.18784 1.14291 1.11711 1.10063 1.08323 1.05594 1.0298 1.00774
0.989687 0.981207 0.982705 0.999557 1.04014 1.09246 1.15156 1.20885 1.2563 1.29075
1.31365 1.32689 1.33406 1.3376 1.33899 1.33929 1.33888 1.33832 1.3372 1.3351
1.33231 1.32958 1.32727 1.32549 1.32422 1.3233 1.32256 1.32176 1.3207 1.31964
1.31876 1.31822 1.3179 1.31768 1.31729 1.31679 1.3163 1.31597 1.31579 2.10306
1.41823 1.26647 1.18875 1.14205 1.11646 1.10062 1.08478 1.05634 1.02723 1.00436
0.987702 0.980805 0.983058 1.00112 1.04154 1.09325 1.15178 1.2092 1.25696 1.29183
1.31485 1.32796 1.3354 1.33869 1.33991 1.33988 1.33932 1.3391 1.33856 1.337
1.33383 1.33035 1.32728 1.32509 1.32367 1.32264 1.3216 1.32051 1.31939 1.31842
1.31772 1.31736 1.3172 1.31694 1.31658 1.31616 1.31589 1.31568 1.31563 2.10342
1.41759 1.26701 1.18813 1.14202 1.11462 1.09987 1.08531 1.05682 1.02832 1.0059
0.990873 0.984734 0.987415 1.00646 1.04757 1.09874 1.15593 1.21092 1.25719 1.29121
1.3143 1.32868 1.33599 1.33942 1.34049 1.34048 1.33962 1.33897 1.33821 1.33648
1.33293 1.3288 1.32546 1.32359 1.32289 1.32281 1.32289 1.32277 1.32176 1.31986
1.31826 1.31722 1.31661 1.31626 1.31606 1.31598 1.31602 1.31602 1.31607 2.10391
1.41577 1.27313 1.17879 1.15176 1.04972 1.01151 1.03295 1.0354 1.03529 1.04181
1.04943 1.05586 1.06797 1.09513 1.13949 1.19682 1.26043 1.31684 1.35679 1.37906
1.39068 1.3968 1.28758 1.33994 1.37575 1.3797 1.37385 1.36118 1.3439 1.32808
1.31844 1.31596 1.31677 1.31832 1.31923 1.32025 1.32081 1.32074 1.32046 1.31998
1.31916 1.31825 1.31733 1.3166 1.31618 1.31585 1.31572 1.31563 1.31564 2.10379
1.41594 1.27056 1.185 1.14382 1.08005 1.35333 1.30618 1.34982 1.3587 1.35473
1.34319 1.32111 1.30272 1.29527 1.29606 1.29967 1.30261 1.30334 1.303 1.30217
1.30197 1.3028 1.30658 1.31123 1.31426 1.31571 1.31606 1.31602 1.31579 1.31573
1.31571 1.31581 2.10387 1.41568 1.2715 1.1847 1.14406 1.07814 1.34963 1.30626
1.34861 1.35654 1.35244 1.34083 1.31897 1.30061 1.29275 1.29325 1.29656 1.29972
1.30067 1.30063 1.30036 1.30027 1.30103 1.30465 1.30955 1.31293 1.31472 1.31543
1.31563 1.31568 1.31576 1.31578 1.31586 2.10393 1.41583 1.27127 1.18489 1.14439
1.07896 1.35014 1.30778 1.34905 1.35656 1.35245 1.34099 1.31936 1.30085 1.29229
1.2925 1.29544 1.29875 1.30006 1.30031 1.30028 1.30037 1.30146 1.3052 1.30953
1.31271 1.31457 1.31548 1.31576 1.31582 1.31581 1.31579 1.3158 2.10394 1.41599
1.27132 1.18509 1.14438 1.07919 1.35058 1.30793 1.35005 1.35743 1.35327 1.34171
1.31991 1.30099 1.29183 1.2918 1.29445 1.29782 1.2992 1.2995 1.29945 1.29956
1.30089 1.305 1.30944 1.3126 1.31443 1.31529 1.31553 1.31565 1.31575 1.31578
1.31586 2.10385 1.41632 1.27132 1.18542 1.14444 1.07956 1.34987 1.30871 1.34866
1.35596 1.35189 1.34063 1.31901 1.30002 1.29069 1.29058 1.2932 1.29689 1.29859
1.29906 1.29913 1.29934 1.30077 1.30493 1.30929 1.31243 1.31422 1.31505 1.31536
1.31548 1.31561 1.31566 1.31577 2.10382 1.41659 1.27129 1.18574 1.14442 1.07989
1.34973 1.30773 1.35113 1.35897 1.35483 1.34293 1.31994 1.2997 1.2896 1.28926
1.29185 1.29574 1.29769 1.29832 1.29845 1.29875 1.30036 1.30466 1.30894 1.31203
1.31384 1.31474 1.31512 1.31535 1.31548 1.31551 1.31557 2.10377 1.41685 1.27132
1.18612 1.14437 1.08038 1.34159 1.2938 1.33607 1.3469 1.34471 1.33671 1.31701
1.29756 1.288 1.28783 1.29064 1.29492 1.29716 1.29795 1.29819 1.29859 1.30023
1.3045 1.30881 1.31193 1.31372 1.31456 1.31493 1.31511 1.31533 1.31543 1.31563
2.10377 1.41703 1.27135 1.18651 1.14421 1.08093 1.25613 1.1653 1.21916 1.26036
1.28184 1.29014 1.28928 1.28244 1.28015 1.28238 1.28814 1.29332 1.29612 1.29719
1.2975 1.29796 1.2998 1.30422 1.30855 1.31164 1.31345 1.31431 1.31481 1.3151
1.31534 1.31541 1.31553 2.10374 1.41722 1.27134 1.18692 1.14411 1.08164 1.39601
1.36391 1.42945 1.43009 1.40552 1.37002 1.33281 1.29923 1.28444 1.28458 1.28906
1.29411 1.29668 1.29767 1.298 1.29844 1.29995 1.30401 1.30829 1.31143 1.31339
1.3144 1.31495 1.31516 1.3152 1.31523 1.31528 2.10372 1.4174 1.2713 1.18726
1.14413 1.0822 1.44864 1.27565 1.34089 1.35069 1.34618 1.33307 1.31225 1.29459
1.28635 1.28659 1.2901 1.29446 1.29676 1.29767 1.29797 1.29831 1.29961 1.30357
1.30798 1.31128 1.31334 1.31446 1.31502 1.31523 1.31523 1.31521 1.31521 2.10371
1.41752 1.2713 1.18752 1.14417 1.08276 0.909208 0.988579 1.07732 1.13386 1.17081
1.19589 1.21207 1.22578 1.24175 1.25981 1.276 1.28743 1.29375 1.29645 1.29736
1.29807 1.29979 1.30394 1.30824 1.31145 1.31346 1.31447 1.3149 1.31504 1.31504
1.31505 1.31507 2.10369 1.41762 1.27124 1.18769 1.14428 1.08307 1.05007 1.085
1.09218 1.09615 1.10356 1.12697 1.15618 1.18772 1.21936 1.24845 1.27127 1.28584
1.29339 1.29647 1.29752 1.29826 1.29992 1.30393 1.30819 1.31131 1.31326 1.31422
1.31465 1.3148 1.31483 1.31489 1.31501 2.10369 1.41765 1.27119 1.18773 1.14437
1.08325 1.38295 1.28177 1.29822 1.29036 1.28098 1.27613 1.27165 1.27022 1.27262
1.28014 1.28899 1.29476 1.29753 1.29855 1.2989 1.29923 1.30023 1.30354 1.30794
1.31121 1.31327 1.31433 1.31485 1.31503 1.31501 1.31498 1.315 2.10373 1.41757
1.27117 1.18767 1.14436 1.08346 1.08401 1.03985 1.13874 1.20657 1.247 1.26473
1.26727 1.26463 1.26573 1.27112 1.28118 1.28909 1.29391 1.29609 1.29686 1.29753
1.29929 1.30364 1.30802 1.31125 1.31329 1.31441 1.31492 1.31505 1.31501 1.31499
1.31501 2.10376 1.41744 1.27126 1.18746 1.1443 1.08363 1.01816 1.13995 1.21446
1.24482 1.26016 1.26467 1.26292 1.25953 1.26156 1.26903 1.28051 1.28919 1.29406
1.29613 1.2969 1.29766 1.29959 1.30394 1.30824 1.31137 1.31335 1.31437 1.31489
1.31509 1.31508 1.31508 1.31512 2.10379 1.41733 1.27129 1.18718 1.14425 1.08365
1.30896 1.27217 1.31564 1.31636 1.30892 1.29294 1.27831 1.2734 1.27529 1.28216
1.29034 1.29551 1.29791 1.2987 1.29887 1.29907 1.30007 1.30361 1.30808 1.31133
1.31331 1.31429 1.31477 1.31495 1.31507 1.31514 1.3153 2.10381 1.41716 1.27127
1.18679 1.14432 1.08337 1.38989 1.3049 1.33166 1.33449 1.32951 1.31931 1.3007
1.28533 1.28072 1.28253 1.2884 1.29376 1.29657 1.29766 1.298 1.29841 1.29989
1.30392 1.30821 1.3114 1.31334 1.31437 1.31493 1.31516 1.31521 1.31522 1.31526
2.1038 1.41699 1.27129 1.1864 1.14441 1.08273 1.31749 1.28954 1.33461 1.35079
1.34952 1.34133 1.31905 1.29659 1.28585 1.28556 1.28875 1.29365 1.29636 1.29743
1.29776 1.29823 1.29998 1.30425 1.3085 1.31157 1.31343 1.31436 1.31487 1.31515
1.31529 1.31533 1.3154 2.10382 1.41675 1.27124 1.18601 1.1445 1.082 1.34628
1.30434 1.34669 1.35618 1.35296 1.34229 1.31913 1.29851 1.28839 1.28809 1.29089
1.2951 1.29724 1.29794 1.29809 1.29839 1.3 1.30434 1.30872 1.31187 1.31371
1.31457 1.31493 1.31512 1.31533 1.31541 1.31558 2.10381 1.41653 1.27121 1.18565
1.14457 1.08135 1.35025 1.30395 1.34707 1.35603 1.35243 1.34138 1.3189 1.29913
1.28947 1.28929 1.29198 1.2959 1.29785 1.29848 1.29861 1.29889 1.30041 1.30458
1.30894 1.31213 1.31395 1.31474 1.31502 1.31516 1.31536 1.31548 1.3158 2.10384
1.41626 1.2712 1.18525 1.14451 1.08076 1.3511 1.30579 1.34764 1.35564 1.35176
1.34048 1.3186 1.29955 1.2905 1.29052 1.29333 1.29693 1.29855 1.29897 1.299
1.29918 1.30058 1.30469 1.30907 1.31225 1.31407 1.31495 1.31533 1.31544 1.3156
1.31567 1.31585 2.10382 1.41607 1.27116 1.18496 1.1445 1.08039 1.35151 1.30567
1.34779 1.35545 1.35135 1.33979 1.31799 1.29939 1.29093 1.29121 1.29434 1.29788
1.29932 1.29964 1.29964 1.29977 1.30098 1.30491 1.30927 1.31243 1.31424 1.31515
1.3155 1.31556 1.3155 1.31545 1.31547 2.10377 1.41587 1.27143 1.18469 1.14415
1.07973 1.35098 1.30508 1.34693 1.35486 1.35082 1.33926 1.31742 1.29918 1.2915
1.29207 1.29555 1.29888 1.29999 1.30002 1.29978 1.29968 1.30046 1.30412 1.30912
1.31268 1.31466 1.31544 1.31565 1.31566 1.3157 1.31573 1.31585 2.10372 1.41603
1.2705 1.18495 1.14389 1.0784 1.3514 1.3052 1.34875 1.35751 1.35353 1.34195
1.31983 1.30156 1.29426 1.2951 1.2988 1.30182 1.30264 1.3024 1.30162 1.30145
1.30235 1.3061 1.3105 1.31347 1.31511 1.31577 1.31592 1.31584 1.3157 1.31555
1.3155 2.10394 1.41559 1.27323 1.17859 1.15171 1.05056 1.04765 1.08192 1.08338
1.08489 1.09648 1.10496 1.11392 1.12895 1.15791 1.20235 1.25917 1.32185 1.37902
1.41874 1.44085 1.45026 1.45183 1.2872 1.33962 1.37491 1.37862 1.37274 1.36002
1.34275 1.32698 1.31742 1.31502 1.31588 1.31756 1.31862 1.31967 1.32023 1.32017
1.31995 1.31953 1.31875 1.31791 1.31711 1.31634 1.31579 1.31542 1.31524 1.31516
1.31515 2.10342 1.41751 1.267 1.18798 1.14194 1.1146 1.0997 1.08518 1.05634
1.02836 1.00583 0.991472 0.985241 0.988316 1.00767 1.04909 1.09995 1.15788 1.21339
1.25971 1.29347 1.31596 1.32968 1.33629 1.33926 1.33997 1.33989 1.33892 1.33812
1.3373 1.33556 1.33208 1.3279 1.32461 1.32287 1.3223 1.32227 1.32231 1.32217
1.32122 1.3195 1.31801 1.31692 1.31626 1.31583 1.31561 1.31553 1.31552 1.3155
1.31548 2.10307 1.41813 1.26645 1.18865 1.1419 1.11638 1.10041 1.08493 1.05561
1.02727 1.00424 0.988052 0.981099 0.983754 1.00213 1.04291 1.09467 1.15361 1.21086
1.2588 1.29339 1.31614 1.32901 1.3358 1.33886 1.33987 1.33963 1.3388 1.33843
1.33769 1.33602 1.33301 1.32956 1.32652 1.32434 1.32299 1.32206 1.32115 1.32009
1.31894 1.31797 1.31724 1.31675 1.31645 1.31633 1.31623 1.31614 1.31595 1.31576
1.31562 2.10332 1.41753 1.26633 1.18775 1.14272 1.11706 1.10046 1.08329 1.05544
1.02982 1.00762 0.990051 0.981603 0.983474 1.00055 1.04143 1.09373 1.15303 1.21029
1.25792 1.29226 1.31485 1.32778 1.33441 1.33769 1.33897 1.33909 1.33839 1.33772
1.33645 1.33428 1.33157 1.32878 1.32641 1.32475 1.32368 1.3229 1.32205 1.32111
1.32011 1.31922 1.31848 1.31793 1.31752 1.31716 1.31681 1.31643 1.31608 1.31589
1.31574 2.10341 1.41731 1.26638 1.18791 1.14254 1.11679 1.10059 1.08363 1.05607
1.03004 1.00758 0.989864 0.981349 0.98313 1.00022 1.04112 1.09345 1.15265 1.20984
1.25723 1.29156 1.31392 1.3269 1.33354 1.33697 1.33829 1.33855 1.33777 1.33704
1.3361 1.33435 1.33182 1.32914 1.32676 1.32497 1.3237 1.32274 1.32192 1.32116
1.32035 1.31964 1.31903 1.31859 1.31812 1.31766 1.31724 1.31693 1.31675 1.31664
1.31648 2.1034 1.41724 1.26631 1.18769 1.14274 1.11695 1.10057 1.0832 1.05631
1.03115 1.00869 0.990444 0.981201 0.982542 0.999182 1.04008 1.09273 1.15222 1.20961
1.25696 1.29122 1.31335 1.3262 1.33275 1.33632 1.33785 1.3383 1.33764 1.33662
1.33534 1.33357 1.33132 1.32907 1.3271 1.32548 1.32411 1.32307 1.32225 1.32145
1.3206 1.31994 1.3194 1.3189 1.31832 1.3179 1.3175 1.31725 1.31696 1.31679
1.31659 2.10344 1.41718 1.26631 1.18773 1.14268 1.11685 1.10065 1.0834 1.0565
1.03127 1.00867 0.99032 0.981173 0.982524 0.999042 1.03952 1.09217 1.15202 1.20976
1.25706 1.29108 1.31275 1.32528 1.33175 1.33552 1.33727 1.33804 1.33738 1.33607
1.33463 1.33276 1.33069 1.32859 1.32671 1.32518 1.32396 1.323 1.32214 1.32136
1.32064 1.32004 1.31955 1.31912 1.31866 1.3182 1.31778 1.31738 1.31702 1.3168
1.31669 2.10344 1.41716 1.2663 1.18768 1.14271 1.1169 1.10063 1.0833 1.05659
1.03165 1.00887 0.990363 0.981259 0.98255 0.998686 1.03902 1.09217 1.15217 1.2097
1.25681 1.2908 1.31251 1.32513 1.33151 1.33532 1.33715 1.33801 1.3374 1.33577
1.334 1.33213 1.33016 1.32821 1.32654 1.32514 1.32395 1.32293 1.32207 1.32129
1.32065 1.32009 1.31954 1.31901 1.3185 1.318 1.31757 1.3172 1.3169 1.31677
1.31669 1.10368 1.27524 0.954408 1.04361 1.33959 1.08521 1.20529 1.31977 1.08063
1.08616 0.488661 0.699587 0.957257 0.545306 0.606198 0.681899 1.1551 1.13453 0.633975
1.15219 1.06087 0.697312 0.0825644 1.00131 1.12209 0.914786 1.06264 0.812819 1.41757
1.57477 1.75368 2.1162 1.72463 1.01586 1.31001 1.11847 1.14092 1.2712 0.879455
0.469696 0.634093 1.16421 0.758808 1.16213 0.25716 0.9704 0.922886 0.847407 1.32736
0.904051 1.19504 1.16497 1.19858 0.520069 0.20168 0.376085 1.13976 0.995483 0.995483
0.56599 0.371395 1.3282 0.921689 1.24927 1.00501 0.835038 0.996951 0.974726 0.986807
0.899517 0.983488 1.23629 1.18466 1.28291 1.24794 0.712447 0.690956 0.657769 0.738118
1.0121 1.0901 1.02134 0.815912 0.783778 0.875492 0.877732 1.01539 1.31286 1.02554
0.539573 0.454273 0.113968 0.733598 0.450404 0.836181 0.481172 0.685333 0.65177 0.566299
0.710053 0.636137 0.874977 0.641636 0.753382 0.766407 0.87374 0.452942 0.781399 0.536611
0.369306 0.498532 1.04099 1.07811 1.16539 0.849347 0.931163 0.202824 0.773478 0.340835
0.129311 0.383121 0.123157 0.862475 1.05118 0.649989 1.49808 1.14712 1.41017 0.738523
0.408933 0.543196 0.274317 1.18317 1.37945 0.330631 0.195065 1.23132 1.39184 1.26565
1.44676 1.27499 1.51204 0.359794 1.30284 1.10147 0.874767 0.933039 0.923814 0.949968
0.675855 1.47799 0.798073 1.51632 1.2636 1.22579 1.57531 1.16047 1.19503 1.30917
1.14464 1.37112 1.36196 1.37247 1.00485 1.62463 1.25736 1.41951 0.652751 0.90118
0.865148 0.582942 0.886225 0.845732 0.874942 0.826617 0.89256 0.711506 0.726977 0.8263
0.731588 0.87811 0.989187 0.610788 1.11525 0.743575 0.541061 1.10224 0.584579 0.432103
0.299167 0.899777 0.889285 0.342045 0.294576 0.971508 1.06447 0.826838 0.288643 0.511413
0.794653 0.999144 1.10593 0.454786 1.22841 1.21287 1.03584 0.221886 0.0172546 0.180142
0.565999 1.22802 1.33354 1.01916 0.707075 0.739321 0.732245 1.05123 0.822211 0.292379
0.484182 0.576443 0.758719 0.490505 0.872557 0.888306 0.830529 0.406889 0.733123 0.98146
1.12967 1.03872 1.1295 1.07835 1.01908 1.13981 1.80581 0.896139 0.905926 1.73371
0.935425 1.16533 1.10814 0.96808 0.891184 0.984481 1.00984 0.795722 0.677268 0.416554
0.532852 0.88896 1.07173 0.565684 0.63694 0.241352 1.12288 0.994902 1.15283 1.03289
0.728022 0.865505 0.776676 0.717784 0.9827 0.876511 0.638198 0.684269 0.922508 1.06417
0.975577 0.986696 1.04062 1.00455 0.97245 1.13404 0.985817 0.939389 0.991665 1.01718
1.44164 1.13763 1.22564 1.44736 1.04638 0.932738 1.09839 0.992621 0.937772 0.95319
0.969861 0.98354 0.988399 1.02423 0.975471 1.04641 0.926527 1.03904 0.960174 0.972077
0.929793 1.66016 0.973739 1.6312 1.11961 1.09883 1.26928 0.975542 1.03701 0.943436
1.00505 0.902171 1.26672 1.37579 0.888074 0.787908 1.0276 1.10384 0.753448 1.00289
0.655327 0.667221 1.0545 1.19245 1.56478 1.27555 1.46212 1.05052 1.00397 1.01906
0.994091 1.02874 1.02108 1.00891 1.05845 1.09513 1.09136 0.850293 1.238 0.997731
0.936924 1.05824 0.971205 1.19017 1.42246 1.13625 0.600636 1.20573 1.47946 1.15587
1.47146 1.39144 1.60623 1.97983 1.19222 1.04385 1.08486 1.08696 1.20749 1.51257
1.41463 1.43976 1.58296 1.0539 1.02296 1.14318 1.03192 1.1831 0.647374 0.70345
0.988911 1.16044 0.999764 1.07524 0.995786 0.972092 0.864955 0.964242 1.00208 1.02396
1.20348 1.20092 1.09686 1.16494 1.06481 1.14283 0.914564 1.06632 1.07259 1.10378
0.971127 1.06609 1.22814 1.31466 0.980119 1.35788 0.966586 1.20837 0.986853 1.12939
0.966096 1.11848 1.14782 1.09619 1.04202 1.06993 0.973748 1.07983 1.07702 0.695878
0.931079 0.796606 1.12026 1.1371 1.1372 1.12171 1.13242 1.17134 1.134 0.722842
0.911763 1.08237 0.55803 1.06393 1.11482 1.10861 0.246396 0.641583 0.465912 0.276358
0.40902 1.44519 0.9107 1.43031 0.837937 0.79021 1.38197 0.797246 1.03629 1.01499
1.08212 1.02063 0.557121 1.19451 1.15791 1.57969 1.86372 1.02274 0.49851 0.443805
1.91627 1.87755 1.01178 1.13739 1.24955 1.23353 1.02774 1.13087 0.678712 0.32928
0.863758 0.846882 0.726559 0.0796702 0.109206 0.159982 0.609298 0.591439 0.556835 1.00982
1.01796 1.01534 1.01284 1.03205 1.1113 1.01747 0.447733 0.546891 0.937501 0.536454
0.642791 0.920898 0.846533 0.940663 1.14672 0.407427 1.34381 0.338564 0.346069 0.111641
0.0628043 0.561913 0.495773 0.578125 0.112361 0.185475 0.884789 0.801694 0.805908 0.937432
0.958774 0.792089 0.876144 1.10717 1.41847 1.22497 1.09617 0.865931 0.937454 0.940237
1.02945 1.03131 1.32129 1.24326 1.13597 1.23056 0.314912 0.303829 0.298466 0.330789
0.779949 0.88934 0.845713 0.834036 0.531243 1.26583 0.866973 1.22291 0.881399 0.832723
0.713475 0.663039 1.0044 1.01489 0.97498 0.953888 0.916082 0.920057 0.934697 0.856299
0.352056 0.530036 0.549095 0.397302 0.322206 0.950142 0.938382 0.80386 0.798647 0.834136
0.92474 0.994475 1.029 1.19978 1.40622 1.3181 1.13543 0.959211 1.08004 1.08278
0.912702 1.11625 1.12463 0.999649 1.20573 1.20317 1.09325 1.08733 1.21429 1.08015
0.884054 0.963275 0.932906 0.748739 0.7221 1.11784 0.720629 1.17648 0.734966 1.13927
0.62776 0.894977 0.969124 0.548664 0.721471 1.14876 0.739833 1.13741 1.19524 1.05219
0.899878 1.05178 1.18756 0.0339403 0.0718257 0.0994243 0.275747 0.265499 0.0831771 0.324188
0.505939 0.432653 0.191183 0.13425 0.482987 0.598798 0.78028 0.550339 0.289004 0.271453
0.711844 0.728973 0.319707 0.908967 0.920468 0.964139 0.94145 1.07314 1.05453 1.0168
1.02834 1.24738 1.13889 0.702207 0.931121 0.642033 1.50744 1.13332 0.515045 0.367192
0.986042 1.22182 0.95214 0.574197 0.55341 1.15318 1.01949 0.764691 1.0368 0.846073
1.04169 0.990639 0.978898 0.963318 0.972167 0.910177 0.965118 1.04513 0.788218 0.676126
0.652732 0.763539 0.623763 0.661199 0.85813 0.827185 0.832004 0.940713 0.917349 0.913433
0.946755 1.01662 1.01052 1.09133 1.10961 1.02513 1.02328 1.08472 1.02364 1.29369
1.72141 0.935853 1.55376 0.817001 0.616133 0.747387 0.636253 0.758192 0.403365 0.420785
0.537622 1.23052 0.606854 0.999692 0.686752 0.772954 0.702963 0.617779 0.793166 0.803507
0.274722 0.476947 0.347993 0.331667 0.142776 0.203983 0.736058 0.714703 0.814892 0.73157
0.771013 0.687546 0.765225 0.736391 0.189617 0.621418 0.944046 0.918714 0.838231 0.602386
0.932827 0.944496 0.564978 0.349707 0.662301 0.368391 0.611215 1.08615 1.10117 1.08938
0.551284 0.152143 0.506952 0.525338 0.197767 0.230699 0.105528 0.221548 0.18515 0.148563
0.29862 0.449946 0.555534 0.504659 0.342382 0.116477 0.177329 0.268349 0.646209 0.675212
0.621234 0.233523 0.0820581 0.545491 0.603898 0.596446 0.762328 0.530535 0.651964 0.620143
0.53748 0.617067 0.566767 0.521578 0.319342 0.47496 0.334291 0.514685 0.356423 0.708007
0.433048 0.318761 0.281412 0.85944 0.887793 0.739871 0.806544 0.676655 0.596496 0.232826
0.614156 0.919508 0.270884 0.307458 0.351607 0.24284 0.386241 0.381398 0.753704 0.758996
0.727308 0.261292 0.59748 0.543126 0.93685 0.454615 0.195073 0.560872 0.456825 0.545097
0.307745 0.215963 0.0938281 0.188851 0.147453 0.365793 1.0441 0.795482 1.42588 1.23252
1.13481 0.96222 0.866598 0.63619 0.677405 0.844315 0.660247 1.00207 1.20374 1.15458
1.8409 1.76304 1.22272 0.692642 0.545897 0.545897 0.467213 0.810471 0.883588 0.946362
0.929213 1.23414 0.80296 1.08723 1.0273 1.1224 0.878404 1.25136 1.80327 0.764092
1.27488 1.66593 0.813771 0.578984 1.04925 0.0778825 0.210443 0.189927 0.181827 0.089718
0.383903 1.0616 0.977392 0.995273 0.893476 1.01295 1.05936 1.19075 1.18225 1.56722
0.730605 0.554156 0.554958 0.73471 0.461688 0.477483 0.280986 1.35026 1.11153 1.41264