# vtk DataFile Version 2.0
sampleSurface
ASCII
DATASET POLYDATA
POINTS 28203 float
-1488.34 -1520.34 1.5 -1600.36 -1520.34 1.5 -1600.36 -1600.36 1.5 -1488.34 -1600.36
1.5 -1376.31 -1520.34 1.5 -1376.31 -1600.36 1.5 -1264.29 -1520.34 1.5
-1264.29 -1600.36 1.5 -1152.26 -1520.34 1.5 -1152.26 -1600.36 1.5 -1040.23
-1520.34 1.5 -1040.23 -1600.36 1.5 -928.21 -1520.34 1.5 -928.21 -1600.36
1.5 -816.184 -1520.34 1.5 -816.184 -1600.36 1.5 -704.159 -1520.34 1.5
-704.159 -1600.36 1.5 -592.134 -1520.34 1.5 -592.134 -1600.36 1.5 -480.108
-1520.34 1.5 -480.108 -1600.36 1.5 -368.083 -1520.34 1.5 -368.083 -1600.36
1.5 -256.058 -1520.34 1.5 -256.058 -1600.36 1.5 -144.032 -1520.34 1.5
-144.032 -1600.36 1.5 -32.0071 -1520.34 1.5 -32.0071 -1600.36 1.5 80.0182
-1520.34 1.5 80.0182 -1600.36 1.5 192.044 -1520.34 1.5 192.044 -1600.36
1.5 304.069 -1520.34 1.5 304.069 -1600.36 1.5 416.094 -1520.34 1.5
416.094 -1600.36 1.5 528.119 -1520.34 1.5 528.119 -1600.36 1.5 640.145
-1520.34 1.5 640.145 -1600.36 1.5 752.17 -1520.34 1.5 752.17 -1600.36
1.5 864.195 -1520.34 1.5 864.195 -1600.36 1.5 976.221 -1520.34 1.5
976.221 -1600.36 1.5 1088.25 -1520.34 1.5 1088.25 -1600.36 1.5 1200.27
-1520.34 1.5 1200.27 -1600.36 1.5 1312.3 -1520.34 1.5 1312.3 -1600.36
1.5 1424.32 -1520.34 1.5 1424.32 -1600.36 1.5 1536.35 -1520.34 1.5
1536.35 -1600.36 1.5 1648.37 -1520.34 1.5 1648.37 -1600.36 1.5 1760.4
-1520.34 1.5 1760.4 -1600.36 1.5 1872.42 -1520.34 1.5 1872.42 -1600.36
1.5 1984.45 -1520.34 1.5 1984.45 -1600.36 1.5 2096.47 -1520.34 1.5
2096.47 -1600.36 1.5 2208.5 -1520.34 1.5 2208.5 -1600.36 1.5 2320.52
-1520.34 1.5 2320.52 -1600.36 1.5 2432.55 -1520.34 1.5 2432.55 -1600.36
1.5 2544.58 -1520.34 1.5 2544.58 -1600.36 1.5 2656.6 -1520.34 1.5
2656.6 -1600.36 1.5 2768.63 -1520.34 1.5 2768.63 -1600.36 1.5 2880.65
-1520.34 1.5 2880.65 -1600.36 1.5 2992.68 -1520.34 1.5 2992.68 -1600.36
1.5 3104.7 -1520.34 1.5 3104.7 -1600.36 1.5 3216.73 -1520.34 1.5
3216.73 -1600.36 1.5 3328.75 -1520.34 1.5 3328.75 -1600.36 1.5 3440.78
-1520.34 1.5 3440.78 -1600.36 1.5 3552.8 -1520.34 1.5 3552.8 -1600.36
1.5 3664.83 -1520.34 1.5 3664.83 -1600.36 1.5 3776.85 -1520.34 1.5
3776.85 -1600.36 1.5 3888.88 -1520.34 1.5 3888.88 -1600.36 1.5 4000.9
-1600.36 1.5 4000.9 -1520.34 1.5 -1488.34 -1440.33 1.5 -1600.36 -1440.33
1.5 -1376.31 -1440.33 1.5 -1264.29 -1440.33 1.5 -1152.26 -1440.33 1.5
-1040.23 -1440.33 1.5 -928.21 -1440.33 1.5 -816.184 -1440.33 1.5 -704.159
-1440.33 1.5 -592.134 -1440.33 1.5 -480.108 -1440.33 1.5 -368.083 -1440.33
1.5 -256.058 -1440.33 1.5 -144.032 -1440.32 1.5 -32.007 -1440.32 1.5
80.0182 -1440.32 1.5 192.044 -1440.32 1.5 304.069 -1440.32 1.5 416.094
-1440.33 1.5 528.119 -1440.33 1.5 640.145 -1440.33 1.5 752.17 -1440.33
1.5 864.195 -1440.33 1.5 976.221 -1440.33 1.5 1088.25 -1440.33 1.5
1200.27 -1440.33 1.5 1312.3 -1440.33 1.5 1424.32 -1440.33 1.5 1536.35
-1440.33 1.5 1648.37 -1440.33 1.5 1760.4 -1440.33 1.5 1872.42 -1440.33
1.5 1984.45 -1440.33 1.5 2096.47 -1440.33 1.5 2208.5 -1440.33 1.5
2320.52 -1440.33 1.5 2432.55 -1440.33 1.5 2544.58 -1440.33 1.5 2656.6
-1440.33 1.5 2768.63 -1440.33 1.5 2880.65 -1440.33 1.5 2992.68 -1440.33
1.5 3104.7 -1440.33 1.5 3216.73 -1440.33 1.5 3328.75 -1440.33 1.5
3440.78 -1440.33 1.5 3552.8 -1440.33 1.5 3664.83 -1440.33 1.5 3776.85
-1440.33 1.5 3888.88 -1440.33 1.5 4000.9 -1440.33 1.5 -1488.34 -1360.31
1.5 -1600.36 -1360.31 1.5 -1376.31 -1360.31 1.5 -1264.29 -1360.31 1.5
-1152.26 -1360.31 1.5 -1040.23 -1360.31 1.5 -928.21 -1360.31 1.5 -816.184
-1360.31 1.5 -704.159 -1360.31 1.5 -592.134 -1360.31 1.5 -480.108 -1360.31
1.5 -368.083 -1360.31 1.5 -256.058 -1360.31 1.5 -144.032 -1360.31 1.5
-32.007 -1360.31 1.5 80.0182 -1360.31 1.5 192.043 -1360.31 1.5 304.069
-1360.31 1.5 416.094 -1360.31 1.5 528.119 -1360.31 1.5 640.145 -1360.31
1.5 752.17 -1360.31 1.5 864.195 -1360.31 1.5 976.221 -1360.31 1.5
1088.25 -1360.31 1.5 1200.27 -1360.31 1.5 1312.3 -1360.31 1.5 1424.32
-1360.31 1.5 1536.35 -1360.31 1.5 1648.37 -1360.31 1.5 1760.4 -1360.31
1.5 1872.42 -1360.31 1.5 1984.45 -1360.31 1.5 2096.47 -1360.31 1.5
2208.5 -1360.31 1.5 2320.52 -1360.31 1.5 2432.55 -1360.31 1.5 2544.58
-1360.31 1.5 2656.6 -1360.31 1.5 2768.63 -1360.31 1.5 2880.65 -1360.31
1.5 2992.68 -1360.31 1.5 3104.7 -1360.31 1.5 3216.73 -1360.31 1.5
3328.75 -1360.31 1.5 3440.78 -1360.31 1.5 3552.8 -1360.31 1.5 3664.83
-1360.31 1.5 3776.85 -1360.31 1.5 3888.88 -1360.31 1.5 4000.9 -1360.31
1.5 -1488.34 -1280.29 1.5 -1600.36 -1280.29 1.5 -1376.31 -1280.29 1.5
-1264.29 -1280.29 1.5 -1152.26 -1280.29 1.5 -1040.23 -1280.29 1.5 -928.21
-1280.29 1.5 -816.184 -1280.29 1.5 -704.159 -1280.29 1.5 -592.134 -1280.29
1.5 -480.108 -1280.29 1.5 -368.083 -1280.29 1.5 -256.058 -1280.29 1.5
-144.032 -1280.29 1.5 -32.007 -1280.29 1.5 80.0182 -1280.29 1.5 192.043
-1280.29 1.5 304.069 -1280.29 1.5 416.094 -1280.29 1.5 528.119 -1280.29
1.5 640.145 -1280.29 1.5 752.17 -1280.29 1.5 864.195 -1280.29 1.5
976.221 -1280.29 1.5 1088.25 -1280.29 1.5 1200.27 -1280.29 1.5 1312.3
-1280.29 1.5 1424.32 -1280.29 1.5 1536.35 -1280.29 1.5 1648.37 -1280.29
1.5 1760.4 -1280.29 1.5 1872.42 -1280.29 1.5 1984.45 -1280.29 1.5
2096.47 -1280.29 1.5 2208.5 -1280.29 1.5 2320.52 -1280.29 1.5 2432.55
-1280.29 1.5 2544.58 -1280.29 1.5 2656.6 -1280.29 1.5 2768.63 -1280.29
1.5 2880.65 -1280.29 1.5 2992.68 -1280.29 1.5 3104.7 -1280.29 1.5
3216.73 -1280.29 1.5 3328.75 -1280.29 1.5 3440.78 -1280.29 1.5 3552.8
-1280.29 1.5 3664.83 -1280.29 1.5 3776.85 -1280.29 1.5 3888.88 -1280.29
1.5 4000.9 -1280.29 1.5 -1488.34 -1200.27 1.5 -1600.36 -1200.27 1.5
-1376.31 -1200.27 1.5 -1264.29 -1200.27 1.5 -1152.26 -1200.27 1.5 -1040.23
-1200.27 1.5 -928.21 -1200.27 1.5 -816.184 -1200.27 1.5 -704.159 -1200.27
1.5 -592.133 -1200.27 1.5 -480.108 -1200.27 1.5 -368.083 -1200.27 1.5
-256.057 -1200.27 1.5 -144.032 -1200.27 1.5 -32.007 -1200.27 1.5 80.0182
-1200.27 1.5 192.043 -1200.27 1.5 304.069 -1200.27 1.5 416.094 -1200.27
1.5 528.119 -1200.27 1.5 640.145 -1200.27 1.5 752.17 -1200.27 1.5
864.195 -1200.27 1.5 976.22 -1200.27 1.5 1088.25 -1200.27 1.5 1200.27
-1200.27 1.5 1312.3 -1200.27 1.5 1424.32 -1200.27 1.5 1536.35 -1200.27
1.5 1648.37 -1200.27 1.5 1760.4 -1200.27 1.5 1872.42 -1200.27 1.5
1984.45 -1200.27 1.5 2096.47 -1200.27 1.5 2208.5 -1200.27 1.5 2320.52
-1200.27 1.5 2432.55 -1200.27 1.5 2544.58 -1200.27 1.5 2656.6 -1200.27
1.5 2768.63 -1200.27 1.5 2880.65 -1200.27 1.5 2992.68 -1200.27 1.5
3104.7 -1200.27 1.5 3216.73 -1200.27 1.5 3328.75 -1200.27 1.5 3440.78
-1200.27 1.5 3552.8 -1200.27 1.5 3664.83 -1200.27 1.5 3776.85 -1200.27
1.5 3888.88 -1200.27 1.5 4000.9 -1200.27 1.5 -1488.34 -1120.25 1.5
-1600.36 -1120.25 1.5 -1376.31 -1120.25 1.5 -1264.29 -1120.25 1.5 -1152.26
-1120.25 1.5 -1040.23 -1120.25 1.5 -928.21 -1120.25 1.5 -816.184 -1120.25
1.5 -704.159 -1120.25 1.5 -592.133 -1120.25 1.5 -480.108 -1120.25 1.5
-368.083 -1120.25 1.5 -256.057 -1120.25 1.5 -144.032 -1120.25 1.5 -32.0069
-1120.25 1.5 80.0182 -1120.25 1.5 192.043 -1120.25 1.5 304.069 -1120.25
1.5 416.094 -1120.25 1.5 528.119 -1120.25 1.5 640.145 -1120.25 1.5
752.17 -1120.25 1.5 864.195 -1120.25 1.5 976.221 -1120.25 1.5 1088.25
-1120.25 1.5 1200.27 -1120.25 1.5 1312.3 -1120.25 1.5 1424.32 -1120.25
1.5 1536.35 -1120.25 1.5 1648.37 -1120.25 1.5 1760.4 -1120.25 1.5
1872.42 -1120.25 1.5 1984.45 -1120.25 1.5 2096.47 -1120.25 1.5 2208.5
-1120.25 1.5 2320.52 -1120.25 1.5 2432.55 -1120.25 1.5 2544.58 -1120.25
1.5 2656.6 -1120.25 1.5 2768.63 -1120.25 1.5 2880.65 -1120.25 1.5
2992.68 -1120.25 1.5 3104.7 -1120.25 1.5 3216.73 -1120.25 1.5 3328.75
-1120.25 1.5 3440.78 -1120.25 1.5 3552.8 -1120.25 1.5 3664.83 -1120.25
1.5 3776.85 -1120.25 1.5 3888.88 -1120.25 1.5 4000.9 -1120.25 1.5
-1488.34 -1040.23 1.5 -1600.36 -1040.23 1.5 -1376.31 -1040.23 1.5 -1264.29
-1040.23 1.5 -1152.26 -1040.23 1.5 -1040.23 -1040.23 1.5 -928.21 -1040.24
1.5 -984.222 -1040.24 1.5 -816.184 -1040.24 1.5 -872.197 -1040.24 1.5
-704.159 -1040.23 1.5 -760.172 -1040.24 1.5 -592.134 -1040.23 1.5 -648.146
-1040.23 1.5 -480.108 -1040.23 1.5 -536.121 -1040.23 1.5 -368.083 -1040.23
1.5 -424.096 -1040.23 1.5 -256.057 -1040.23 1.5 -312.07 -1040.23 1.5
-144.032 -1040.23 1.5 -200.045 -1040.23 1.5 -32.007 -1040.23 1.5 -88.0196
-1040.23 1.5 80.0182 -1040.23 1.5 24.0056 -1040.23 1.5 192.043 -1040.23
1.5 136.031 -1040.23 1.5 304.069 -1040.23 1.5 248.056 -1040.23 1.5
416.094 -1040.23 1.5 360.081 -1040.23 1.5 528.119 -1040.23 1.5 472.107
-1040.23 1.5 640.145 -1040.23 1.5 584.132 -1040.23 1.5 752.17 -1040.23
1.5 696.157 -1040.23 1.5 864.195 -1040.23 1.5 808.183 -1040.23 1.5
976.221 -1040.24 1.5 920.208 -1040.24 1.5 1088.25 -1040.24 1.5 1032.23
-1040.24 1.5 1200.27 -1040.23 1.5 1312.3 -1040.23 1.5 1424.32 -1040.23
1.5 1536.35 -1040.23 1.5 1648.37 -1040.23 1.5 1760.4 -1040.23 1.5
1872.42 -1040.23 1.5 1984.45 -1040.23 1.5 2096.47 -1040.23 1.5 2208.5
-1040.24 1.5 2320.52 -1040.24 1.5 2432.55 -1040.24 1.5 2544.58 -1040.24
1.5 2656.6 -1040.24 1.5 2768.63 -1040.24 1.5 2880.65 -1040.24 1.5
2992.68 -1040.24 1.5 3104.7 -1040.24 1.5 3216.73 -1040.24 1.5 3328.75
-1040.24 1.5 3440.78 -1040.24 1.5 3552.8 -1040.24 1.5 3664.83 -1040.24
1.5 3776.85 -1040.24 1.5 3888.88 -1040.24 1.5 4000.9 -1040.24 1.5
-1488.34 -960.216 1.5 -1600.36 -960.216 1.5 -1376.31 -960.216 1.5 -1264.29
-960.217 1.5 -1152.26 -960.217 1.5 -1040.24 -1000.23 1.5 -1040.23 -960.217
1.5 -984.223 -1000.23 1.5 -872.197 -1000.23 1.5 -900.204 -1000.23 1.5
-928.21 -1000.23 1.5 -760.172 -1000.23 1.5 -788.178 -1000.23 1.5 -816.185
-1000.23 1.5 -648.147 -1000.23 1.5 -676.153 -1000.23 1.5 -704.159 -1000.23
1.5 -536.121 -1000.23 1.5 -564.128 -1000.23 1.5 -592.134 -1000.23 1.5
-424.096 -1000.23 1.5 -452.102 -1000.23 1.5 -480.109 -1000.23 1.5 -312.071
-1000.23 1.5 -340.077 -1000.23 1.5 -368.083 -1000.23 1.5 -200.045 -1000.23
1.5 -228.052 -1000.23 1.5 -256.058 -1000.23 1.5 -88.0199 -1000.23 1.5
-116.026 -1000.23 1.5 -144.033 -1000.23 1.5 24.0054 -1000.23 1.5 -4.0009
-1000.23 1.5 -32.0072 -1000.23 1.5 136.031 -1000.23 1.5 108.024 -1000.23
1.5 80.0181 -1000.23 1.5 248.056 -1000.23 1.5 220.05 -1000.23 1.5
[...]
CELL_DATA 27282
FIELD attributes 2
k 1 27282 float
2.25088 0.766042 0.468524 0.391498 0.363786 0.34922 0.342245 0.340578 0.340873 0.341094 0.340387
0.338927 0.338267 0.338239 0.339053 0.341964 0.347109 0.354137 0.363796 0.375382 0.387812
0.399779 0.41002 0.417362 0.421958 0.424573 0.42584 0.426369 0.426505 0.42647 0.426321
0.426045 0.425676 0.425258 0.424852 0.424481 0.424195 0.423998 0.423855 0.423657 0.423493
0.423349 0.423265 0.423164 0.423092 0.422981 0.42287 0.422804 0.422727 0.422558 2.25092
0.766044 0.468517 0.391481 0.363759 0.349253 0.342199 0.340545 0.340852 0.341082 0.34037
0.338918 0.33828 0.33829 0.339137 0.342064 0.347223 0.354217 0.363824 0.375351 0.387799
0.399761 0.410018 0.417345 0.421944 0.424568 0.425849 0.426408 0.426596 0.426578 0.426424
0.426112 0.425699 0.425228 0.424801 0.424427 0.424126 0.423902 0.423785 0.423705 0.423586
0.423433 0.423323 0.42324 0.423149 0.423097 0.423022 0.422876 0.422795 0.422629 2.25083
0.766028 0.468515 0.391504 0.363825 0.349224 0.342194 0.340578 0.340884 0.34107 0.34036
0.338937 0.33833 0.33835 0.339162 0.342083 0.347219 0.35428 0.363939 0.37542 0.387808
0.399735 0.410064 0.41742 0.422074 0.424683 0.425929 0.426467 0.426668 0.426655 0.426501
0.426222 0.425835 0.425388 0.424966 0.424559 0.42426 0.424049 0.423902 0.423726 0.423548
0.423386 0.423298 0.42324 0.423181 0.423102 0.423039 0.422935 0.422883 0.422715 2.25093
0.766026 0.468448 0.391554 0.363587 0.349338 0.342123 0.340482 0.34078 0.34098 0.340266
0.338885 0.338381 0.338469 0.33944 0.342454 0.347592 0.354569 0.364175 0.375553 0.387914
0.399745 0.410118 0.417412 0.422093 0.424863 0.426154 0.426669 0.426806 0.426751 0.426546
0.42626 0.425892 0.425395 0.424915 0.424512 0.424242 0.424017 0.423823 0.423658 0.423571
0.423475 0.423392 0.423265 0.423154 0.423052 0.422987 0.422988 0.422965 0.422781 2.2508
0.766018 0.468472 0.391554 0.363939 0.349235 0.342041 0.340608 0.340893 0.340973 0.340233
0.338894 0.338397 0.33848 0.339477 0.342475 0.347666 0.354641 0.364249 0.375604 0.38801
0.399784 0.410232 0.417648 0.42239 0.425152 0.426448 0.426908 0.426993 0.426921 0.426728
0.426417 0.425989 0.425488 0.425011 0.424587 0.424242 0.423961 0.423786 0.423692 0.42364
0.423523 0.423345 0.423158 0.422977 0.42281 0.422669 0.422573 0.422532 0.422438 2.25051
0.766087 0.46768 0.392699 0.362302 0.349562 0.342039 0.34038 0.340556 0.340695 0.339872
0.338193 0.33806 0.338279 0.339961 0.343296 0.348724 0.355497 0.365341 0.376266 0.388841
0.400186 0.411204 0.417834 0.422077 0.425109 0.427001 0.427721 0.427804 0.42765 0.427452
0.426955 0.426221 0.425503 0.424897 0.424409 0.42404 0.423792 0.423624 0.423464 0.423282
0.423087 0.422904 0.422754 0.422626 0.422531 0.422452 0.422425 0.422431 0.422435 2.25113
0.765955 0.468679 0.391767 0.363126 0.352704 0.348624 0.350496 0.355039 0.356911 0.355859
0.352614 0.348223 0.343807 0.342563 0.344114 0.349272 0.35666 0.365849 0.376528 0.387499
0.39943 0.408509 0.41667 0.420487 0.424599 0.426479 0.427738 0.42809 0.42811 0.427989
0.427555 0.426701 0.425786 0.424974 0.424371 0.424017 0.423886 0.423923 0.424031 0.424118
0.424074 0.423883 0.423559 0.423117 0.422754 0.422533 0.422432 0.422407 0.422407 2.25146
0.765308 0.469368 0.39182 0.361705 0.207095 0.380412 0.485991 0.492594 0.48856 0.486627
0.487484 0.488882 0.486992 0.486285 0.488539 0.495875 0.508828 0.524053 0.540537 0.557532
0.575757 0.593767 0.588532 0.991842 0.563464 0.462098 0.439139 0.434207 0.431904 0.430684
0.429566 0.427975 0.426163 0.424592 0.423443 0.42295 0.422824 0.422867 0.422979 0.423191
0.42333 0.423366 0.423313 0.42316 0.422987 0.422776 0.422633 0.422514 0.422487 2.25122
0.765571 0.468826 0.392218 0.359107 0.235925 0.910497 0.93689 0.542627 0.451346 0.431977
0.4276 0.426537 0.426456 0.426058 0.424196 0.421746 0.41966 0.418571 0.418329 0.418211
0.418107 0.418035 0.418068 0.418319 0.418843 0.419588 0.420527 0.421353 0.421917 0.422288
0.422394 0.42247 2.25158 0.765368 0.46935 0.391738 0.358972 0.23567 0.900431 0.934201
0.541503 0.450903 0.431733 0.427447 0.426649 0.426757 0.42641 0.424264 0.421395 0.419145
0.418023 0.417852 0.41788 0.417927 0.417949 0.417997 0.418196 0.418681 0.419388 0.420255
0.421054 0.421641 0.422009 0.422197 0.422316 2.25171 0.765374 0.469422 0.391456 0.358905
0.235761 0.899694 0.934379 0.541877 0.451444 0.432241 0.428097 0.427431 0.427466 0.426944
0.424574 0.421535 0.419137 0.417859 0.417671 0.417737 0.417838 0.417958 0.418155 0.418461
0.418955 0.419662 0.420497 0.421175 0.421671 0.421973 0.422126 0.422327 2.25178 0.765364
0.469391 0.391421 0.358784 0.235733 0.898185 0.93359 0.541767 0.451518 0.432051 0.42778
0.427107 0.427162 0.426697 0.424407 0.421406 0.419032 0.41778 0.41762 0.417698 0.417811
0.417942 0.418182 0.418567 0.419091 0.419743 0.42053 0.421194 0.421679 0.421994 0.422171
0.422304 2.25175 0.765352 0.469362 0.391437 0.358666 0.235686 0.897243 0.933471 0.542053
0.451809 0.432733 0.428621 0.427998 0.427965 0.427285 0.424671 0.421518 0.419027 0.417622
0.417426 0.417505 0.417646 0.417823 0.418081 0.418461 0.418996 0.419689 0.420483 0.421187
0.421695 0.422027 0.422212 0.422311 2.2518 0.765332 0.469308 0.391439 0.358538 0.235632
0.895323 0.931496 0.5411 0.451049 0.431293 0.426859 0.426208 0.426384 0.426093 0.424114
0.421196 0.418834 0.417552 0.417384 0.417465 0.417616 0.417807 0.418079 0.418467 0.419022
0.41974 0.420531 0.421226 0.421686 0.421998 0.422125 0.422283 2.2518 0.765303 0.469246
0.391437 0.358407 0.23558 0.899096 0.93694 0.544192 0.453611 0.434937 0.431048 0.430529
0.430527 0.429705 0.426622 0.422871 0.420018 0.418152 0.417508 0.417448 0.417483 0.41758
0.417827 0.418265 0.418893 0.419649 0.420411 0.421129 0.421581 0.421899 0.42201 0.422268
2.25181 0.765275 0.469143 0.391447 0.358256 0.235529 0.895204 0.924792 0.542409 0.455444
0.437962 0.433705 0.432449 0.432552 0.432242 0.429598 0.42522 0.421714 0.419285 0.418108
0.417781 0.417736 0.417786 0.417976 0.418372 0.418958 0.419731 0.420448 0.421179 0.421618
0.421969 0.422053 0.422248 2.25185 0.765251 0.469017 0.391516 0.358088 0.235481 1.10763
0.907083 0.495481 0.395319 0.369594 0.366362 0.369128 0.377514 0.385998 0.393487 0.399448
0.404102 0.408053 0.411343 0.413838 0.415511 0.416576 0.417275 0.417966 0.418736 0.419622
0.420402 0.421156 0.421599 0.421966 0.422063 0.422251 2.25182 0.765229 0.468866 0.391588
0.357928 0.235379 0.861322 0.893401 0.512953 0.416189 0.399268 0.401728 0.407742 0.410795
0.410796 0.408724 0.407782 0.408005 0.409697 0.412482 0.414685 0.416182 0.417116 0.417728
0.418298 0.418997 0.41981 0.420541 0.421217 0.421657 0.422017 0.422121 0.422277 2.25175
0.765211 0.468797 0.391565 0.357834 0.235325 0.773958 0.952817 0.552707 0.465257 0.450688
0.446337 0.444721 0.44393 0.441541 0.435217 0.428485 0.423453 0.420495 0.419116 0.41874
0.418667 0.418651 0.418684 0.418852 0.419269 0.419858 0.420472 0.421139 0.4216 0.421976
0.42208 0.422224 2.25169 0.765183 0.468791 0.391553 0.357775 0.235339 0.683915 0.715108
0.437124 0.380386 0.378926 0.383051 0.39275 0.402283 0.409402 0.413715 0.416049 0.417314
0.418203 0.41885 0.419181 0.419255 0.419218 0.419181 0.419217 0.419458 0.419923 0.42051
0.421167 0.421636 0.42202 0.422125 0.422257 2.25168 0.765157 0.46881 0.391541 0.357828
0.235271 0.969632 0.970492 0.552694 0.45288 0.426103 0.419324 0.417671 0.416636 0.41553
0.414367 0.413308 0.41334 0.414356 0.415789 0.416867 0.417543 0.417937 0.418227 0.418569
0.419123 0.419806 0.420488 0.421167 0.421628 0.421987 0.42211 0.422268 2.25163 0.765164
0.468844 0.391602 0.357909 0.235307 0.853164 0.882374 0.524704 0.44526 0.43177 0.428978
0.428694 0.428755 0.42788 0.424012 0.419687 0.416874 0.415612 0.415601 0.416173 0.416862
0.417401 0.417829 0.418308 0.418973 0.419777 0.420533 0.421196 0.421668 0.422003 0.422113
0.422239 2.25161 0.765192 0.468937 0.391577 0.358077 0.235268 0.206188 0.887588 0.93676
0.542753 0.4508 0.431072 0.428146 0.427205 0.426477 0.424907 0.422041 0.419222 0.417014
0.416299 0.416467 0.416896 0.417289 0.417592 0.417908 0.418375 0.418978 0.419722 0.42048
0.421195 0.421643 0.421959 0.422073 0.42222 2.25171 0.765232 0.469098 0.391499 0.358241
0.23535 1.02832 1.00341 0.571983 0.472719 0.446451 0.438352 0.435675 0.434036 0.431094
0.426812 0.422768 0.419894 0.418217 0.417761 0.417804 0.417903 0.418016 0.418212 0.418583
0.419136 0.419852 0.42058 0.421242 0.421654 0.421994 0.422149 0.422284 2.2518 0.765273
0.46923 0.391453 0.358404 0.235426 0.834805 0.902729 0.527093 0.437299 0.419537 0.418252
0.419028 0.420909 0.421598 0.421164 0.419297 0.417522 0.417025 0.417115 0.417328 0.417556
0.417777 0.418047 0.418444 0.41901 0.419742 0.420508 0.421202 0.421617 0.421966 0.422138
0.422339 2.25183 0.765321 0.469327 0.391425 0.35854 0.235504 0.868315 0.913723 0.532617
0.443741 0.425293 0.422598 0.422848 0.423955 0.424173 0.42294 0.420396 0.418255 0.417266
0.417242 0.417388 0.417606 0.417828 0.418111 0.418526 0.419077 0.419786 0.420519 0.421227
0.421657 0.422011 0.42214 0.422351 2.25186 0.76536 0.469394 0.391415 0.358658 0.23557
0.901914 0.931918 0.5409 0.450997 0.432288 0.428342 0.427813 0.427841 0.427208 0.4246
0.42145 0.418981 0.417575 0.4174 0.417497 0.417648 0.417812 0.418079 0.4185 0.419057
0.419774 0.420509 0.421233 0.421651 0.422026 0.422137 0.422345 2.25185 0.765394 0.469442
0.391411 0.358779 0.23562 0.90441 0.933504 0.541809 0.451729 0.432364 0.428095 0.427417
0.427424 0.426861 0.424437 0.421391 0.418984 0.41769 0.417563 0.417672 0.417832 0.417991
0.418223 0.418605 0.419139 0.41983 0.420558 0.421261 0.421647 0.422005 0.422102 0.422343
2.25191 0.765419 0.469479 0.391388 0.358883 0.23561 0.905265 0.934206 0.541974 0.451696
0.432421 0.42821 0.427552 0.42759 0.427044 0.424611 0.42152 0.41908 0.417778 0.417621
0.417709 0.417838 0.417975 0.41819 0.418547 0.419071 0.419779 0.420598 0.421311 0.421747
0.422005 0.422106 0.42226 2.25187 0.765436 0.469504 0.391408 0.358988 0.235647 0.905932
0.934704 0.541948 0.451459 0.432103 0.427905 0.427259 0.427329 0.426867 0.424588 0.421606
0.419232 0.417979 0.417819 0.417896 0.418016 0.418143 0.418325 0.418613 0.419094 0.419772
0.420594 0.42128 0.421774 0.422066 0.422236 0.422303 2.2517 0.765418 0.469407 0.39171
0.359038 0.235509 0.906249 0.934466 0.541542 0.450937 0.431825 0.427568 0.426791 0.426896
0.426541 0.424392 0.421489 0.419207 0.418061 0.417881 0.417896 0.417934 0.417952 0.418012
0.418243 0.418735 0.419409 0.420255 0.421015 0.421642 0.422007 0.422282 0.422387 2.25134
0.765623 0.468874 0.392182 0.359161 0.235921 0.909051 0.936926 0.542601 0.451277 0.431885
0.427486 0.42642 0.42637 0.426009 0.424176 0.421751 0.419697 0.418624 0.418382 0.418275
0.418182 0.418113 0.418145 0.418378 0.418888 0.419663 0.420606 0.421386 0.421928 0.422212
0.422388 0.422481 2.25152 0.765352 0.469384 0.391817 0.361713 0.206446 0.475204 0.585785
0.57025 0.561645 0.557115 0.556181 0.55698 0.558947 0.563011 0.570331 0.58184 0.59734
0.615615 0.63527 0.656461 0.677499 0.698153 0.91914 0.991589 0.563304 0.461995 0.439128
0.434276 0.431968 0.43074 0.429633 0.428063 0.426244 0.424661 0.423502 0.422998 0.422864
0.422904 0.423022 0.423225 0.423343 0.423372 0.423342 0.423212 0.423034 0.422818 0.422604
0.42244 0.422361 2.2512 0.765985 0.468707 0.391757 0.363165 0.352611 0.348419 0.350051
0.354489 0.356045 0.354855 0.351371 0.346819 0.34266 0.3418 0.343717 0.349127 0.356625
0.365863 0.376676 0.387579 0.399458 0.408441 0.416564 0.420325 0.424444 0.426346 0.427615
0.427971 0.428004 0.427913 0.427528 0.426742 0.425872 0.425064 0.424465 0.424117 0.424
0.424044 0.424149 0.424225 0.424161 0.423947 0.423609 0.423208 0.422799 0.422575 0.422412
0.422374 0.422379 2.25057 0.766107 0.467713 0.39265 0.362361 0.349559 0.342072 0.34035
0.340554 0.340682 0.339765 0.338121 0.337897 0.338177 0.339747 0.343121 0.348462 0.355302
0.365087 0.376035 0.388613 0.399933 0.410965 0.417556 0.421821 0.424883 0.426796 0.427531
0.427624 0.427503 0.42737 0.426955 0.426212 0.425506 0.424919 0.424444 0.424083 0.423822
0.423646 0.423485 0.423324 0.423141 0.422958 0.422775 0.42264 0.422522 0.422442 0.422414
0.422431 0.422403 2.25084 0.766041 0.468476 0.39156 0.363949 0.349208 0.342045 0.340578
0.340875 0.340951 0.340185 0.338783 0.33827 0.33834 0.339309 0.342283 0.347469 0.35443
0.364068 0.375411 0.387801 0.3996 0.41003 0.417436 0.422146 0.424934 0.426244 0.426719
0.426824 0.426786 0.426666 0.426402 0.426007 0.425525 0.425042 0.424601 0.424282 0.424032
0.423878 0.423755 0.42365 0.423514 0.423365 0.423211 0.423075 0.42292 0.42275 0.42264
0.422659 0.422603 2.25097 0.766044 0.468449 0.391571 0.363575 0.349332 0.342133 0.340453
0.340751 0.34096 0.340234 0.338791 0.33825 0.338322 0.339272 0.342254 0.3474 0.354377
0.364008 0.375371 0.387711 0.399554 0.409904 0.417192 0.421845 0.424626 0.425945 0.426501
0.426683 0.426662 0.426504 0.426218 0.425855 0.425408 0.42497 0.424555 0.424218 0.423995
0.423893 0.423818 0.423653 0.423464 0.42333 0.423261 0.42318 0.423105 0.422995 0.422885
0.422853 0.422725 2.25086 0.766042 0.468514 0.391522 0.363821 0.349195 0.342175 0.340574
0.340872 0.341037 0.340292 0.338841 0.338213 0.338209 0.338994 0.341874 0.347055 0.354122
0.363772 0.375246 0.387646 0.399561 0.409884 0.417244 0.421904 0.424506 0.425733 0.426245
0.426409 0.426376 0.426224 0.42594 0.42553 0.425105 0.42475 0.424425 0.424147 0.423905
0.423741 0.423653 0.423586 0.423448 0.423292 0.423176 0.423135 0.423063 0.422998 0.423006
0.422963 0.422775 2.25095 0.766055 0.468517 0.391507 0.363741 0.349225 0.342192 0.340534
0.340833 0.34105 0.34031 0.338823 0.338184 0.338167 0.338966 0.341839 0.347025 0.354014
0.363682 0.375199 0.387619 0.399556 0.409826 0.41717 0.421786 0.424426 0.425692 0.426231
0.42639 0.42634 0.426161 0.425867 0.425482 0.42504 0.424638 0.424288 0.424032 0.423806
0.423615 0.423472 0.423387 0.423328 0.423257 0.423192 0.423149 0.42309 0.423006 0.422976
0.422932 0.422801 2.2509 0.766053 0.468525 0.391513 0.36378 0.349197 0.342226 0.340553
0.340852 0.341068 0.340334 0.33883 0.33814 0.3381 0.338898 0.341796 0.346942 0.353957
0.363643 0.375203 0.387616 0.399568 0.409822 0.417186 0.421794 0.424398 0.425632 0.426163
0.426325 0.426282 0.426067 0.425795 0.425457 0.425033 0.424632 0.424266 0.42399 0.423799
0.423648 0.423498 0.423376 0.423273 0.423175 0.423106 0.423044 0.423036 0.423034 0.423013
0.422945 0.422761 0.276161 0.0227685 0.0588988 0.129819 0.0659311 0.121735 0.369416 0.331049
0.228295 0.313836 0.491312 0.0512135 0.186923 0.368289 0.0732135 0.0358621 0.143073 0.127027
0.222375 0.381058 0.0424184 0.181645 0.688522 0.467166 0.21398 0.0886447 0.0233727 0.143016
0.0494083 0.653954 2.38516 2.4145 0.757364 0.390906 0.327152 2.20805 1.08738 1.67445
1.8529 1.0711 1.94436 1.53688 2.01525 0.777525 0.198927 0.359496 0.496686 0.651702
0.221132 0.470285 0.252614 1.91463 0.284592 0.207337 1.83953 0.18762 1.09337 1.89089
1.04552 1.89484 0.0704896 0.162292 0.66507 0.827373 0.498222 0.736395 0.3995 0.432427
0.165293 0.141444 0.613331 0.882319 0.283054 0.198771 1.13031 0.562629 0.549056 0.651478
0.698619 0.418461 0.436028 0.989649 1.16339 0.180104 0.512348 0.298415 1.28743 0.806868
0.251859 0.980287 0.321274 0.191409 0.0921328 1.27056 0.354933 0.242782 0.101352 0.45115
0.198494 0.852758 1.8864 0.822115 0.968481 0.441372 0.142164 0.738348 2.13758 0.24843
0.917023 2.09856 0.903744 0.266278 0.80039 0.953891 0.407703 0.103725 0.499902 0.864833
0.518749 0.798197 0.217769 1.77334 1.68534 0.452397 0.133608 0.0592378 0.0379775 0.166361
0.0439537 0.28252 0.152533 0.324823 0.142708 0.60969 0.127004 0.329886 0.940908 0.90424
1.02841 0.7384 0.277235 0.0594416 0.152769 0.0758817 0.30413 1.84825 1.45009 0.935465
1.70611 0.930598 0.489407 0.320895 0.395757 0.802722 0.631179 1.13038 0.111957 0.77954
0.492211 0.529343 1.6096 1.07149 1.01776 0.0900854 0.0254997 0.112856 0.158039 0.292786
0.0342191 0.0849223 1.07055 0.340313 0.216591 0.778862 0.867126 1.38372 0.173536 1.38091
0.673645 0.373893 0.342592 1.64383 0.429814 1.64601 0.476914 0.219421 1.43804 1.67043
1.73872 0.942223 0.695891 0.704717 1.97726 0.243888 1.88772 0.324892 0.467868 0.381933
0.114368 0.407003 0.265912 0.240261 0.297238 0.10025 0.3405 0.247438 1.3491 1.47679
1.56344 0.638422 1.03177 0.400468 0.520749 0.195881 0.728351 1.16569 0.356134 0.398974
1.09822 1.4243 0.907343 0.466463 1.41096 1.60344 1.81711 1.27576 1.62332 0.663141
0.655405 0.65216 0.710483 1.30683 0.549539 0.672857 0.776731 0.0897669 0.0251672 0.0402529
0.637978 0.329133 0.166755 1.53583 1.06218 1.3951 0.71594 0.202554 0.120934 0.218397
0.538803 0.149209 1.24597 0.548079 0.271072 1.67494 1.20184 1.22594 0.445895 0.897968
1.93418 0.844689 1.93599 0.73092 0.500689 0.155287 0.968217 0.163794 0.457331 0.794206
0.129713 1.12079 1.01278 1.12212 0.842186 0.22313 0.151473 1.34946 0.623911 0.671079
1.48659 0.379034 1.61992 1.6158 1.34829 0.941973 0.521952 0.103256 0.579788 0.14682
1.02023 1.91272 0.944339 2.23504 1.8699 1.79606 1.48985 1.73277 0.581477 0.495226
1.4224 0.760212 0.652673 1.67888 1.75086 1.77297 1.69783 0.0903828 0.051974 1.58895
0.28499 0.0885287 0.992634 2.23173 0.833401 2.08256 0.0626509 0.588662 1.48422 0.302604
1.09189 0.715773 1.21591 0.598091 0.400213 0.710045 1.02736 0.617195 1.81501 2.23818
0.758639 0.522551 0.47307 0.47177 0.0613789 0.587008 1.31332 1.18068 0.525828 1.12406
2.14625 0.273396 1.049 0.87635 0.258816 0.752256 1.69514 2.07196 0.466029 0.225495
0.145745 2.35615 2.3367 2.06538 2.51284 1.62321 0.0497887 0.717625 0.895737 0.772251
0.606255 0.976588 0.894708 0.227128 0.509076 0.603095 0.436145 0.856094 0.0599661 0.189529
1.30885 0.172889 1.11122 0.257743 0.275668 0.739718 1.52533 0.666386 0.939931 0.290609
0.849368 0.831131 0.27506 1.20742 0.746584 0.390154 0.371441 1.17579 0.330605 1.64879
1.96263 0.274408 1.96915 0.88056 0.428364 0.825659 0.128283 0.618889 0.225155 0.0793101
0.234641 0.0553143 0.141995 0.239785 0.0544283 0.245773 1.47056 0.545629 1.44375 0.0796447
0.201586 0.251643 0.252384 1.95445 1.78403 1.89154 1.74838 1.90984 1.64892 1.80541
2.04634 0.84968 0.25507 1.06578 0.512148 1.9722 0.919674 1.46668 0.677477 0.125074
0.166856 1.5673 1.14624 1.69414 1.48027 0.396544 0.479154 0.296993 1.37307 1.51855
0.665727 0.475668 2.26768 2.38242 2.35314 2.15837 0.473181 0.602475 0.69589 0.799949
1.24756 0.233636 0.620066 0.151351 0.805493 0.527798 0.273668 0.76868 0.130986 0.0478693
0.126474 1.02959 0.245288 0.657949 1.17979 1.11012 0.529041 0.733037 0.139086 0.194713
0.388151 0.165089 0.984702 0.2249 0.357106 0.573276 1.01174 0.88405 0.525336 0.136286
0.435083 0.259853 0.434622 0.414654 0.210911 0.28367 0.325072 0.746388 0.640767 0.646223
0.341597 1.70261 0.881391 0.384143 0.957934 1.90629 0.799207 0.218124 0.307509 0.839673
0.240186 0.219004 0.112108 1.17427 0.402934 1.16707 0.419088 2.17681 1.62491 1.85541
1.18776 0.657249 0.642463 1.97598 1.80482 1.93799 1.67039 1.95559 0.977848 1.95645
2.01775 2.01674 1.99218 0.299878 0.173465 0.460415 1.12957 0.544612 0.870202 1.09918
1.40495 0.71594 0.800509 0.250479 0.520592 1.72035 0.470577 1.36857 1.32647 2.37997
0.567433 1.93898 1.06025 1.20814 0.622997 0.96831 1.90052 1.90626 0.594125 0.566294
1.57075 1.32909 0.116474 1.67095 0.429669 0.99667 1.62483 0.928976 1.63777 1.05701
1.52308 0.693467 1.5884 0.324467 0.641166 1.64682 1.38569 0.622462 1.01779 1.75953
0.585616 0.2204 2.30662 1.13281 2.29343 1.05885 0.298176 0.176298 0.0937645 0.42828
1.71788 2.3331 0.232821 1.0782 2.01752 0.481098 0.900174 2.01115 1.77995 1.07106
2.13443 0.0416936 0.55424 0.290091 1.41998 1.31139 0.32742 0.812561 2.11125 2.2246
2.13857 2.15695 1.47317 1.32163 0.661534 1.91765 0.647882 0.715648 1.08319 1.03318
1.03065 2.23105 2.08221 2.08758 1.99527 1.46324 0.258753 1.00831 1.03657 0.815611
0.133266 0.477051 0.753265 0.469024 0.774461 0.525065 1.71584 1.36165 1.69777 0.141649
0.440246 1.77794 0.423936 1.95922 0.0698623 1.57668 1.13481 2.17581 0.749002 0.844366
1.72023 1.7264 2.27128 0.627912 2.22482 0.543018 1.28332 0.737079 0.721739 1.74429
1.08111 1.89136 0.404645 0.38542 0.512736 0.689388 0.605597 0.0910525 0.125943 1.10322
0.481963 1.55464 0.347937 1.34035 0.540556 0.272898 0.607908 0.71178 0.170183 0.0891942