# vtk DataFile Version 2.0
sampleSurface
ASCII
DATASET POLYDATA
POINTS 28160 float
-1324.23 -1350.14 1.5 -1423.91 -1350.14 1.5 -1423.91 -1421.2 1.5 -1324.23 -1421.2
1.5 -1224.56 -1350.14 1.5 -1224.56 -1421.2 1.5 -1124.89 -1350.14 1.5
-1124.89 -1421.2 1.5 -1025.21 -1350.14 1.5 -1025.21 -1421.2 1.5 -925.54
-1350.14 1.5 -925.54 -1421.2 1.5 -825.867 -1350.14 1.5 -825.867 -1421.2
1.5 -726.193 -1350.14 1.5 -726.193 -1421.2 1.5 -626.52 -1350.14 1.5
-626.52 -1421.2 1.5 -526.846 -1350.14 1.5 -526.846 -1421.2 1.5 -427.173
-1350.14 1.5 -427.173 -1421.2 1.5 -327.499 -1350.14 1.5 -327.499 -1421.2
1.5 -227.826 -1350.14 1.5 -227.826 -1421.2 1.5 -128.152 -1350.14 1.5
-128.152 -1421.2 1.5 -28.4787 -1350.14 1.5 -28.4787 -1421.2 1.5 71.1948
-1350.14 1.5 71.1949 -1421.2 1.5 170.868 -1350.14 1.5 170.868 -1421.2
1.5 270.542 -1350.14 1.5 270.542 -1421.2 1.5 370.216 -1350.14 1.5
370.216 -1421.2 1.5 469.889 -1350.14 1.5 469.889 -1421.2 1.5 569.563
-1350.14 1.5 569.563 -1421.2 1.5 669.236 -1350.14 1.5 669.236 -1421.2
1.5 768.91 -1350.14 1.5 768.91 -1421.2 1.5 868.583 -1350.14 1.5
868.583 -1421.2 1.5 968.257 -1350.14 1.5 968.257 -1421.2 1.5 1067.93
-1350.14 1.5 1067.93 -1421.2 1.5 1167.6 -1350.14 1.5 1167.6 -1421.2
1.5 1267.28 -1350.14 1.5 1267.28 -1421.2 1.5 1366.95 -1350.14 1.5
1366.95 -1421.2 1.5 1466.62 -1350.14 1.5 1466.62 -1421.2 1.5 1566.3
-1350.14 1.5 1566.3 -1421.2 1.5 1665.97 -1350.14 1.5 1665.97 -1421.2
1.5 1765.65 -1350.14 1.5 1765.65 -1421.2 1.5 1865.32 -1350.14 1.5
1865.32 -1421.2 1.5 1964.99 -1350.14 1.5 1964.99 -1421.2 1.5 2064.67
-1350.14 1.5 2064.67 -1421.2 1.5 2164.34 -1350.14 1.5 2164.34 -1421.2
1.5 2264.01 -1350.14 1.5 2264.01 -1421.2 1.5 2363.69 -1350.14 1.5
2363.69 -1421.2 1.5 2463.36 -1350.14 1.5 2463.36 -1421.2 1.5 2563.03
-1350.14 1.5 2563.03 -1421.2 1.5 2662.71 -1350.14 1.5 2662.71 -1421.2
1.5 2762.38 -1350.14 1.5 2762.38 -1421.2 1.5 2862.06 -1350.14 1.5
2862.06 -1421.2 1.5 2961.73 -1350.14 1.5 2961.73 -1421.2 1.5 3061.4
-1350.14 1.5 3061.4 -1421.2 1.5 3161.08 -1350.14 1.5 3161.08 -1421.2
1.5 3260.75 -1350.14 1.5 3260.75 -1421.2 1.5 3360.42 -1350.14 1.5
3360.42 -1421.2 1.5 3460.1 -1350.14 1.5 3460.1 -1421.2 1.5 3559.77
-1421.2 1.5 3559.77 -1350.14 1.5 -1324.23 -1279.08 1.5 -1423.91 -1279.08
1.5 -1224.56 -1279.08 1.5 -1124.89 -1279.08 1.5 -1025.21 -1279.08 1.5
-925.54 -1279.08 1.5 -825.867 -1279.08 1.5 -726.193 -1279.08 1.5 -626.52
-1279.08 1.5 -526.846 -1279.08 1.5 -427.173 -1279.08 1.5 -327.499 -1279.08
1.5 -227.826 -1279.08 1.5 -128.152 -1279.08 1.5 -28.4787 -1279.08 1.5
71.1948 -1279.08 1.5 170.868 -1279.08 1.5 270.542 -1279.08 1.5 370.216
-1279.08 1.5 469.889 -1279.08 1.5 569.563 -1279.08 1.5 669.236 -1279.08
1.5 768.91 -1279.08 1.5 868.583 -1279.08 1.5 968.257 -1279.08 1.5
1067.93 -1279.08 1.5 1167.6 -1279.08 1.5 1267.28 -1279.08 1.5 1366.95
-1279.08 1.5 1466.62 -1279.08 1.5 1566.3 -1279.08 1.5 1665.97 -1279.08
1.5 1765.65 -1279.08 1.5 1865.32 -1279.08 1.5 1964.99 -1279.08 1.5
2064.67 -1279.08 1.5 2164.34 -1279.08 1.5 2264.01 -1279.08 1.5 2363.69
-1279.08 1.5 2463.36 -1279.08 1.5 2563.03 -1279.08 1.5 2662.71 -1279.08
1.5 2762.38 -1279.08 1.5 2862.06 -1279.08 1.5 2961.73 -1279.08 1.5
3061.4 -1279.08 1.5 3161.08 -1279.08 1.5 3260.75 -1279.08 1.5 3360.42
-1279.08 1.5 3460.1 -1279.08 1.5 3559.77 -1279.08 1.5 -1324.23 -1208.02
1.5 -1423.91 -1208.02 1.5 -1224.56 -1208.02 1.5 -1124.89 -1208.02 1.5
-1025.21 -1208.02 1.5 -925.54 -1208.02 1.5 -825.867 -1208.02 1.5 -726.193
-1208.02 1.5 -626.52 -1208.02 1.5 -526.846 -1208.02 1.5 -427.173 -1208.02
1.5 -327.499 -1208.02 1.5 -227.826 -1208.02 1.5 -128.152 -1208.02 1.5
-28.4787 -1208.02 1.5 71.1948 -1208.02 1.5 170.868 -1208.02 1.5 270.542
-1208.02 1.5 370.215 -1208.02 1.5 469.889 -1208.02 1.5 569.563 -1208.02
1.5 669.236 -1208.02 1.5 768.91 -1208.02 1.5 868.583 -1208.02 1.5
968.257 -1208.02 1.5 1067.93 -1208.02 1.5 1167.6 -1208.02 1.5 1267.28
-1208.02 1.5 1366.95 -1208.02 1.5 1466.62 -1208.02 1.5 1566.3 -1208.02
1.5 1665.97 -1208.02 1.5 1765.65 -1208.02 1.5 1865.32 -1208.02 1.5
1964.99 -1208.02 1.5 2064.67 -1208.02 1.5 2164.34 -1208.02 1.5 2264.01
-1208.02 1.5 2363.69 -1208.02 1.5 2463.36 -1208.02 1.5 2563.03 -1208.02
1.5 2662.71 -1208.02 1.5 2762.38 -1208.02 1.5 2862.06 -1208.02 1.5
2961.73 -1208.02 1.5 3061.4 -1208.02 1.5 3161.08 -1208.02 1.5 3260.75
-1208.02 1.5 3360.42 -1208.02 1.5 3460.1 -1208.02 1.5 3559.77 -1208.02
1.5 -1324.23 -1136.96 1.5 -1423.91 -1136.96 1.5 -1224.56 -1136.96 1.5
-1124.89 -1136.96 1.5 -1025.21 -1136.96 1.5 -925.54 -1136.96 1.5 -825.867
-1136.96 1.5 -726.193 -1136.96 1.5 -626.52 -1136.96 1.5 -526.846 -1136.96
1.5 -427.173 -1136.96 1.5 -327.499 -1136.96 1.5 -227.826 -1136.96 1.5
-128.152 -1136.96 1.5 -28.4787 -1136.96 1.5 71.1948 -1136.96 1.5 170.868
-1136.96 1.5 270.542 -1136.96 1.5 370.215 -1136.96 1.5 469.889 -1136.96
1.5 569.563 -1136.96 1.5 669.236 -1136.96 1.5 768.91 -1136.96 1.5
868.583 -1136.96 1.5 968.257 -1136.96 1.5 1067.93 -1136.96 1.5 1167.6
-1136.96 1.5 1267.28 -1136.96 1.5 1366.95 -1136.96 1.5 1466.62 -1136.96
1.5 1566.3 -1136.96 1.5 1665.97 -1136.96 1.5 1765.65 -1136.96 1.5
1865.32 -1136.96 1.5 1964.99 -1136.96 1.5 2064.67 -1136.96 1.5 2164.34
-1136.96 1.5 2264.01 -1136.96 1.5 2363.69 -1136.96 1.5 2463.36 -1136.96
1.5 2563.03 -1136.96 1.5 2662.71 -1136.96 1.5 2762.38 -1136.96 1.5
2862.06 -1136.96 1.5 2961.73 -1136.96 1.5 3061.4 -1136.96 1.5 3161.08
-1136.96 1.5 3260.75 -1136.96 1.5 3360.42 -1136.96 1.5 3460.1 -1136.96
1.5 3559.77 -1136.96 1.5 -1324.23 -1065.9 1.5 -1423.91 -1065.9 1.5
-1224.56 -1065.9 1.5 -1124.89 -1065.9 1.5 -1025.21 -1065.9 1.5 -925.54
-1065.9 1.5 -825.867 -1065.9 1.5 -726.193 -1065.9 1.5 -626.52 -1065.9
1.5 -526.846 -1065.9 1.5 -427.173 -1065.9 1.5 -327.499 -1065.9 1.5
-227.826 -1065.9 1.5 -128.152 -1065.9 1.5 -28.4787 -1065.9 1.5 71.1948
-1065.9 1.5 170.868 -1065.9 1.5 270.542 -1065.9 1.5 370.215 -1065.9
1.5 469.889 -1065.9 1.5 569.563 -1065.9 1.5 669.236 -1065.9 1.5
768.91 -1065.9 1.5 868.583 -1065.9 1.5 968.257 -1065.9 1.5 1067.93
-1065.9 1.5 1167.6 -1065.9 1.5 1267.28 -1065.9 1.5 1366.95 -1065.9
1.5 1466.62 -1065.9 1.5 1566.3 -1065.9 1.5 1665.97 -1065.9 1.5
1765.65 -1065.9 1.5 1865.32 -1065.9 1.5 1964.99 -1065.9 1.5 2064.67
-1065.9 1.5 2164.34 -1065.9 1.5 2264.01 -1065.9 1.5 2363.69 -1065.9
1.5 2463.36 -1065.9 1.5 2563.03 -1065.9 1.5 2662.71 -1065.9 1.5
2762.38 -1065.9 1.5 2862.06 -1065.9 1.5 2961.73 -1065.9 1.5 3061.4
-1065.9 1.5 3161.08 -1065.9 1.5 3260.75 -1065.9 1.5 3360.42 -1065.9
1.5 3460.1 -1065.9 1.5 3559.77 -1065.9 1.5 -1324.23 -994.838 1.5
-1423.91 -994.838 1.5 -1224.56 -994.838 1.5 -1124.89 -994.838 1.5 -1025.21
-994.838 1.5 -925.54 -994.838 1.5 -825.867 -994.838 1.5 -726.193 -994.838
1.5 -626.52 -994.838 1.5 -526.846 -994.838 1.5 -427.173 -994.838 1.5
-327.499 -994.837 1.5 -227.826 -994.837 1.5 -128.152 -994.837 1.5 -28.4787
-994.836 1.5 71.1948 -994.836 1.5 170.868 -994.837 1.5 270.542 -994.837
1.5 370.215 -994.837 1.5 469.889 -994.838 1.5 569.563 -994.838 1.5
669.236 -994.838 1.5 768.91 -994.838 1.5 868.584 -994.838 1.5 968.257
-994.838 1.5 1067.93 -994.838 1.5 1167.6 -994.838 1.5 1267.28 -994.838
1.5 1366.95 -994.838 1.5 1466.62 -994.839 1.5 1566.3 -994.839 1.5
1665.97 -994.839 1.5 1765.65 -994.839 1.5 1865.32 -994.839 1.5 1964.99
-994.839 1.5 2064.67 -994.839 1.5 2164.34 -994.839 1.5 2264.01 -994.839
1.5 2363.69 -994.839 1.5 2463.36 -994.839 1.5 2563.03 -994.839 1.5
2662.71 -994.839 1.5 2762.38 -994.839 1.5 2862.06 -994.839 1.5 2961.73
-994.839 1.5 3061.4 -994.839 1.5 3161.08 -994.839 1.5 3260.75 -994.839
1.5 3360.42 -994.839 1.5 3460.1 -994.839 1.5 3559.77 -994.839 1.5
-1324.23 -923.778 1.5 -1423.91 -923.778 1.5 -1224.56 -923.778 1.5 -1124.89
-923.778 1.5 -1025.21 -923.778 1.5 -925.54 -923.779 1.5 -825.867 -923.779
1.5 -875.703 -923.779 1.5 -726.193 -923.779 1.5 -776.03 -923.779 1.5
-626.52 -923.779 1.5 -676.356 -923.779 1.5 -526.846 -923.778 1.5 -576.683
-923.779 1.5 -427.172 -923.778 1.5 -477.009 -923.778 1.5 -327.499 -923.778
1.5 -377.336 -923.778 1.5 -227.825 -923.778 1.5 -277.662 -923.778 1.5
-128.152 -923.777 1.5 -177.989 -923.777 1.5 -28.4784 -923.777 1.5 -78.3151
-923.777 1.5 71.195 -923.777 1.5 21.3583 -923.777 1.5 170.869 -923.777
1.5 121.032 -923.777 1.5 270.542 -923.777 1.5 220.705 -923.777 1.5
370.216 -923.778 1.5 320.379 -923.778 1.5 469.889 -923.778 1.5 420.053
-923.778 1.5 569.563 -923.778 1.5 519.726 -923.778 1.5 669.237 -923.779
1.5 619.4 -923.778 1.5 768.91 -923.779 1.5 719.073 -923.779 1.5
868.584 -923.779 1.5 818.747 -923.779 1.5 968.257 -923.779 1.5 918.421
-923.779 1.5 1067.93 -923.779 1.5 1167.6 -923.778 1.5 1267.28 -923.778
1.5 1366.95 -923.779 1.5 1466.62 -923.779 1.5 1566.3 -923.779 1.5
1665.97 -923.779 1.5 1765.64 -923.779 1.5 1865.32 -923.779 1.5 1964.99
-923.779 1.5 2064.67 -923.779 1.5 2164.34 -923.779 1.5 2264.01 -923.779
1.5 2363.69 -923.779 1.5 2463.36 -923.779 1.5 2563.03 -923.779 1.5
2662.71 -923.779 1.5 2762.38 -923.779 1.5 2862.06 -923.779 1.5 2961.73
-923.779 1.5 3061.4 -923.779 1.5 3161.08 -923.779 1.5 3260.75 -923.779
1.5 3360.42 -923.779 1.5 3460.1 -923.779 1.5 3559.77 -923.779 1.5
-1324.23 -852.718 1.5 -1423.91 -852.718 1.5 -1224.56 -852.718 1.5 -1124.89
-852.718 1.5 -1025.21 -852.718 1.5 -925.54 -888.249 1.5 -925.54 -852.719
1.5 -875.703 -888.249 1.5 -776.03 -888.249 1.5 -800.948 -888.249 1.5
-825.867 -888.249 1.5 -676.356 -888.249 1.5 -701.275 -888.249 1.5 -726.193
-888.249 1.5 -576.683 -888.249 1.5 -601.601 -888.249 1.5 -626.52 -888.249
1.5 -477.009 -888.249 1.5 -501.928 -888.249 1.5 -526.846 -888.249 1.5
-377.336 -888.249 1.5 -402.254 -888.249 1.5 -427.172 -888.249 1.5 -277.662
-888.249 1.5 -302.58 -888.249 1.5 -327.499 -888.249 1.5 -177.989 -888.249
1.5 -202.907 -888.249 1.5 -227.825 -888.249 1.5 -78.3149 -888.249 1.5
-103.233 -888.249 1.5 -128.152 -888.249 1.5 21.3586 -888.249 1.5 -3.55977
-888.249 1.5 -28.4782 -888.249 1.5 121.032 -888.249 1.5 96.1138 -888.249
1.5 71.1954 -888.249 1.5 220.706 -888.249 1.5 195.787 -888.249 1.5
170.869 -888.249 1.5 320.379 -888.249 1.5 295.461 -888.249 1.5 270.543
[...]
CELL_DATA 27261
FIELD attributes 2
k 1 27261 float
2.51853 0.878959 0.509936 0.406533 0.371824 0.355521 0.345709 0.340669 0.339223 0.339917 0.341208
0.341263 0.340604 0.33976 0.339673 0.339843 0.340721 0.343201 0.347272 0.352841 0.360468
0.369956 0.380664 0.391818 0.402464 0.411702 0.418366 0.422612 0.42492 0.425957 0.426321
0.42637 0.426252 0.426002 0.425687 0.425247 0.42482 0.424465 0.424209 0.424018 0.42391
0.423843 0.423727 0.423713 0.423661 0.423587 0.423526 0.423448 0.423371 0.42316 2.51858
0.878967 0.509907 0.406565 0.371753 0.355521 0.345705 0.34066 0.339202 0.3399 0.341191
0.341235 0.340573 0.339806 0.339763 0.339913 0.340779 0.343278 0.347384 0.352922 0.360524
0.369954 0.380642 0.391813 0.402445 0.411716 0.418398 0.422638 0.42494 0.425997 0.426392
0.426461 0.426349 0.426086 0.42578 0.42538 0.424946 0.424584 0.424325 0.4241 0.423944
0.423842 0.423767 0.423758 0.423685 0.423586 0.423513 0.423435 0.423392 0.423188 2.51849
0.878941 0.509916 0.406578 0.371839 0.3555 0.345713 0.340673 0.339239 0.339948 0.341179
0.341206 0.340539 0.339825 0.339805 0.339982 0.340825 0.343287 0.347417 0.352956 0.360556
0.369983 0.380739 0.391897 0.402548 0.411799 0.418444 0.422677 0.424969 0.426026 0.426451
0.426568 0.426492 0.426244 0.425948 0.425566 0.425134 0.424759 0.424468 0.424204 0.424039
0.423899 0.423843 0.423767 0.423626 0.423482 0.423389 0.423363 0.423345 0.423146 2.51857
0.878952 0.509786 0.406708 0.371527 0.355518 0.345708 0.340656 0.33914 0.339814 0.341084
0.341115 0.340514 0.339872 0.339937 0.34019 0.34118 0.343684 0.347756 0.353223 0.360823
0.370124 0.380826 0.391958 0.402426 0.411819 0.418559 0.42285 0.425146 0.426209 0.426607
0.426668 0.426508 0.426214 0.425905 0.425513 0.425078 0.424686 0.424386 0.42417 0.424064
0.423955 0.42384 0.423676 0.423576 0.423466 0.423366 0.423353 0.423328 0.423152 2.51844
0.878915 0.509886 0.406621 0.371768 0.355656 0.345594 0.340684 0.339241 0.339914 0.341095
0.341097 0.340499 0.339875 0.339945 0.340198 0.34119 0.343714 0.347815 0.353273 0.360957
0.370185 0.380895 0.392054 0.402718 0.412084 0.41879 0.423119 0.42541 0.426481 0.426884
0.426946 0.426768 0.426413 0.426063 0.42558 0.425065 0.424623 0.424321 0.424164 0.424014
0.42388 0.423757 0.423656 0.423543 0.423401 0.423311 0.423241 0.423158 0.422932 2.5179
0.878948 0.5093 0.407193 0.370412 0.356528 0.345682 0.340584 0.338901 0.339462 0.34081
0.340764 0.340296 0.339524 0.339792 0.340278 0.342011 0.344538 0.34896 0.354237 0.362143
0.370945 0.381888 0.392717 0.402223 0.411763 0.418914 0.423822 0.426332 0.427318 0.427689
0.427763 0.427557 0.426814 0.426093 0.425508 0.424985 0.424539 0.424195 0.423956 0.423794
0.423674 0.42355 0.423406 0.42325 0.42308 0.422948 0.422843 0.422826 0.422725 2.51887
0.878788 0.510495 0.406582 0.371709 0.354575 0.352623 0.352498 0.353913 0.358527 0.360219
0.359562 0.356496 0.351555 0.345437 0.342293 0.342465 0.344503 0.34907 0.355317 0.361932
0.371858 0.381034 0.39197 0.400634 0.411031 0.417668 0.422866 0.425864 0.427461 0.428197
0.428319 0.427987 0.427133 0.426356 0.425705 0.42504 0.42451 0.424173 0.423993 0.423977
0.424039 0.424207 0.424229 0.42419 0.423934 0.423748 0.423302 0.423131 0.422745 2.51897
0.878544 0.510463 0.405826 0.371397 0.201821 0.346919 0.482148 0.500668 0.498113 0.492697
0.488972 0.487372 0.487097 0.486345 0.484951 0.48386 0.486189 0.493096 0.504401 0.518546
0.535189 0.55089 0.552942 0.970937 0.565623 0.463855 0.440943 0.435161 0.432884 0.431474
0.430706 0.429905 0.428634 0.426937 0.425389 0.424224 0.423521 0.423316 0.423295 0.423363
0.423451 0.42357 0.423663 0.42366 0.423606 0.423554 0.423477 0.423398 0.423002 2.51912
0.878431 0.511342 0.40278 0.371342 0.233999 0.888692 0.93636 0.551349 0.457488 0.436737
0.431237 0.428652 0.427644 0.427509 0.427262 0.425816 0.423177 0.420946 0.419484 0.419157
0.419257 0.41935 0.419349 0.419274 0.41924 0.419293 0.41944 0.419847 0.420454 0.421239
0.421709 0.422367 2.51951 0.878262 0.511893 0.401412 0.37056 0.23472 0.877778 0.934087
0.549925 0.456463 0.436309 0.430872 0.42842 0.427765 0.427837 0.427649 0.426042 0.42303
0.420576 0.419018 0.418706 0.41886 0.419045 0.41914 0.419164 0.419179 0.419222 0.419448
0.419785 0.420258 0.420947 0.421366 0.422244 2.51956 0.878265 0.511826 0.40137 0.370572
0.234722 0.876399 0.933193 0.550066 0.456893 0.437052 0.431623 0.429282 0.428732 0.428743
0.428338 0.426272 0.423128 0.420579 0.418883 0.418456 0.418583 0.418786 0.418921 0.419028
0.41916 0.419324 0.41956 0.419948 0.420386 0.421113 0.421488 0.422299 2.51967 0.878234
0.511771 0.401352 0.370522 0.234651 0.874221 0.931164 0.548804 0.455778 0.436018 0.430701
0.428595 0.428289 0.428412 0.428115 0.426249 0.423172 0.420661 0.418996 0.418577 0.418689
0.418883 0.419012 0.419086 0.419201 0.419398 0.419686 0.420123 0.420575 0.421265 0.42167
0.422394 2.51958 0.878198 0.511683 0.40141 0.370523 0.234608 0.874725 0.932468 0.550657
0.457767 0.438097 0.432857 0.430693 0.430217 0.430119 0.429429 0.426925 0.423539 0.42091
0.4191 0.418428 0.418471 0.418623 0.418764 0.418865 0.419037 0.419234 0.41955 0.420002
0.42043 0.421173 0.421525 0.422277 2.51959 0.878164 0.511592 0.401457 0.37049 0.234565
0.868094 0.924053 0.545068 0.451115 0.431743 0.42693 0.425363 0.425409 0.425919 0.425892
0.424723 0.422104 0.419884 0.418372 0.418066 0.41818 0.418397 0.418584 0.418723 0.418924
0.419168 0.419525 0.420023 0.420509 0.421274 0.421634 0.422373 2.51938 0.878115 0.511423
0.401596 0.370501 0.234533 0.865147 0.926479 0.551094 0.461583 0.443729 0.439882 0.439516
0.439837 0.439932 0.438769 0.434984 0.430226 0.426121 0.42308 0.421037 0.419928 0.419354
0.419044 0.418908 0.418928 0.419097 0.419434 0.419882 0.420379 0.421134 0.421503 0.422289
2.51923 0.878101 0.511246 0.40176 0.370522 0.234407 0.252309 0.906872 1.02824 0.590446
0.476808 0.447556 0.440187 0.435978 0.434591 0.434412 0.433665 0.430932 0.426682 0.42319
0.42082 0.419416 0.418897 0.418816 0.418825 0.418893 0.419034 0.419248 0.419549 0.419986
0.420469 0.421214 0.421633 0.422346 2.51912 0.878101 0.511071 0.401896 0.370559 0.234266
0.817542 0.83668 0.478808 0.375721 0.345691 0.340739 0.341803 0.345026 0.352544 0.36275
0.372646 0.381789 0.389804 0.396931 0.403211 0.408392 0.412343 0.415047 0.416776 0.417757
0.418471 0.419053 0.419842 0.420477 0.421226 0.421644 0.422293 2.51903 0.878098 0.51091
0.402046 0.370604 0.23407 1.10302 0.926455 0.53899 0.440271 0.416622 0.411308 0.411196
0.413022 0.416463 0.41734 0.416017 0.413227 0.411646 0.411372 0.412078 0.413912 0.415682
0.417104 0.41809 0.418714 0.419122 0.41949 0.420063 0.42064 0.421363 0.421747 0.422371
2.51903 0.87805 0.510897 0.402107 0.370621 0.233884 0.725605 0.920508 0.538232 0.43389
0.409137 0.404109 0.403754 0.405263 0.411023 0.415673 0.415789 0.413678 0.412393 0.412368
0.413164 0.41519 0.41687 0.418077 0.418796 0.419175 0.419454 0.419782 0.420273 0.420767
0.421422 0.421769 0.422361 2.51904 0.878015 0.510957 0.40206 0.370642 0.233912 0.623489
0.630087 0.387584 0.318358 0.306112 0.309445 0.317255 0.330969 0.347593 0.363473 0.376972
0.387936 0.396802 0.403986 0.409619 0.413718 0.416416 0.41801 0.418858 0.419263 0.419511
0.419748 0.420181 0.420701 0.421381 0.421791 0.422404 2.5191 0.878051 0.510925 0.40209
0.37067 0.233933 0.962014 0.979509 0.564 0.457462 0.432554 0.427539 0.428037 0.429918
0.431126 0.430678 0.427632 0.423377 0.420211 0.418362 0.417954 0.418133 0.418562 0.418877
0.419055 0.41917 0.419322 0.419603 0.420051 0.420575 0.421276 0.421687 0.422332 2.51911
0.878107 0.510962 0.402055 0.370666 0.234082 0.955687 0.978786 0.58803 0.492288 0.471563
0.465026 0.459197 0.455239 0.452195 0.447499 0.440948 0.433936 0.4278 0.423356 0.420722
0.419444 0.418981 0.418895 0.418903 0.418977 0.419184 0.419527 0.420032 0.420537 0.421243
0.421696 0.422349 2.51925 0.87814 0.511116 0.401925 0.370611 0.234153 0.924542 0.966629
0.5647 0.466055 0.44427 0.437544 0.434563 0.433599 0.432956 0.431395 0.427747 0.423377
0.41986 0.417758 0.417014 0.417126 0.417668 0.418193 0.418598 0.418914 0.419207 0.419559
0.420031 0.420514 0.421229 0.421635 0.42232 2.51944 0.87815 0.511311 0.401737 0.370538
0.234252 0.868103 0.954568 0.562469 0.467852 0.446745 0.439449 0.436271 0.435093 0.433822
0.430985 0.426971 0.422987 0.420019 0.418252 0.417765 0.417976 0.418379 0.418673 0.418867
0.419053 0.419286 0.419641 0.420082 0.420553 0.421247 0.421653 0.422336 2.51957 0.878176
0.511489 0.401569 0.370497 0.234284 0.888796 0.92884 0.546968 0.454442 0.434183 0.428859
0.427254 0.427167 0.427645 0.427659 0.426381 0.423519 0.420987 0.419299 0.418795 0.418806
0.4189 0.419005 0.419079 0.41921 0.419421 0.419727 0.42011 0.420563 0.421228 0.421633
0.422364 2.51963 0.878206 0.511652 0.401419 0.370492 0.234338 0.877732 0.920181 0.542411
0.449964 0.429768 0.424407 0.422846 0.422844 0.423548 0.423786 0.422968 0.420793 0.418814
0.41773 0.417765 0.418054 0.418446 0.418726 0.418911 0.419127 0.419341 0.419676 0.420127
0.420597 0.421277 0.421632 0.422378 2.51969 0.878242 0.511769 0.401354 0.370517 0.234427
0.874535 0.927952 0.546561 0.453567 0.433797 0.428803 0.427101 0.427051 0.427402 0.42724
0.425592 0.422648 0.420251 0.418632 0.418295 0.418441 0.418697 0.418879 0.419002 0.419186
0.419399 0.419709 0.420152 0.420599 0.421344 0.421676 0.422376 2.51964 0.878276 0.511833
0.401372 0.370568 0.234507 0.880078 0.931858 0.549347 0.456268 0.436582 0.431431 0.429305
0.428932 0.428996 0.428559 0.426369 0.423115 0.420535 0.418794 0.418302 0.418427 0.418678
0.418866 0.419016 0.4192 0.419415 0.419708 0.420158 0.420578 0.421316 0.421657 0.422367
2.51972 0.87831 0.511898 0.401356 0.370572 0.234515 0.880855 0.932492 0.549455 0.45638
0.436581 0.431165 0.428936 0.4285 0.42857 0.428236 0.426293 0.423168 0.420616 0.418938
0.41852 0.418654 0.418881 0.419034 0.41914 0.419282 0.419489 0.419753 0.420175 0.420567
0.421307 0.421665 0.422375 2.51961 0.878325 0.511934 0.401382 0.370613 0.234591 0.881835
0.933438 0.549899 0.456652 0.436656 0.431202 0.428893 0.428364 0.428414 0.428081 0.426167
0.423057 0.420537 0.418899 0.418512 0.418656 0.418876 0.419025 0.419139 0.419295 0.419455
0.419687 0.420093 0.420519 0.421236 0.421631 0.422353 2.51958 0.878323 0.511983 0.401433
0.370592 0.234451 0.883127 0.934374 0.550056 0.456509 0.436294 0.430822 0.428342 0.427665
0.427743 0.427576 0.425993 0.422989 0.42056 0.419006 0.418678 0.418832 0.419043 0.419165
0.419192 0.419212 0.419253 0.419463 0.419828 0.420363 0.420985 0.421472 0.422263 2.51915
0.878477 0.511403 0.402787 0.371366 0.234828 0.883978 0.936257 0.55116 0.457225 0.436356
0.430853 0.428298 0.427305 0.427198 0.427005 0.425648 0.423055 0.420849 0.419399 0.419111
0.419241 0.419362 0.419382 0.419322 0.419292 0.419353 0.419515 0.419912 0.420538 0.421299
0.421754 0.422433 2.51901 0.878588 0.51049 0.405809 0.371408 0.209037 0.353554 0.59238
0.578018 0.569132 0.561525 0.55667 0.555332 0.55523 0.557045 0.560322 0.564159 0.570075
0.57941 0.592456 0.607147 0.623301 0.644442 0.892033 0.970473 0.565472 0.463724 0.440787
0.435028 0.432742 0.431329 0.43057 0.429787 0.428539 0.42687 0.425338 0.424172 0.423489
0.423299 0.4233 0.423367 0.423488 0.423602 0.423668 0.423674 0.423599 0.423567 0.423503
0.423422 0.423042 2.51891 0.878831 0.510498 0.406606 0.371759 0.354437 0.352402 0.351796
0.352989 0.356893 0.358207 0.357203 0.353645 0.348639 0.343066 0.341249 0.341676 0.344292
0.348971 0.355351 0.361985 0.371929 0.38102 0.391891 0.400418 0.410771 0.417356 0.422551
0.425559 0.427149 0.42789 0.428039 0.427768 0.426995 0.42624 0.42563 0.425027 0.424496
0.424172 0.424022 0.42403 0.424132 0.424296 0.42433 0.424282 0.424029 0.423821 0.423353
0.423223 0.422833 2.51795 0.878969 0.509348 0.407155 0.370498 0.356573 0.345719 0.340547
0.338911 0.33942 0.340724 0.340685 0.339938 0.339335 0.339535 0.340046 0.341598 0.344218
0.348561 0.353779 0.361668 0.370473 0.38145 0.39226 0.401795 0.411339 0.418499 0.423418
0.42594 0.426955 0.427356 0.427455 0.427278 0.426573 0.425896 0.425399 0.424913 0.424481
0.424148 0.423907 0.423753 0.423644 0.423553 0.423425 0.423272 0.423104 0.422962 0.422843
0.422826 0.422745 2.51846 0.878932 0.509914 0.406599 0.371787 0.355627 0.345592 0.34065
0.339228 0.339891 0.341023 0.340981 0.340288 0.339613 0.339694 0.339928 0.340855 0.343309
0.347464 0.352858 0.360557 0.369812 0.38052 0.391687 0.40234 0.411683 0.418392 0.422707
0.425002 0.426103 0.426554 0.426652 0.426523 0.426205 0.425873 0.425471 0.425022 0.424591
0.424283 0.424071 0.423985 0.42388 0.423824 0.423759 0.423681 0.423506 0.423364 0.423259
0.423201 0.422995 2.51859 0.878967 0.50979 0.406711 0.371529 0.355524 0.345697 0.34063
0.339102 0.339723 0.341026 0.34104 0.34036 0.339641 0.339688 0.339908 0.340833 0.343278
0.347388 0.352832 0.360436 0.369757 0.380444 0.391584 0.402077 0.411476 0.418198 0.422479
0.424778 0.425848 0.426283 0.426396 0.426296 0.426016 0.425689 0.425348 0.424989 0.424616
0.4243 0.424053 0.423922 0.423842 0.423768 0.423707 0.423671 0.423589 0.423475 0.423454
0.423396 0.423178 2.51849 0.878951 0.509914 0.40658 0.371824 0.355495 0.345697 0.340641
0.339186 0.339847 0.341108 0.341119 0.340377 0.339591 0.339535 0.339695 0.340501 0.342902
0.347058 0.352581 0.360197 0.36962 0.380386 0.391544 0.402202 0.411449 0.418076 0.422286
0.424574 0.425654 0.426127 0.426283 0.42623 0.425992 0.425695 0.425351 0.424965 0.424612
0.424332 0.424132 0.423984 0.423871 0.423791 0.423679 0.42358 0.423512 0.423463 0.423458
0.423416 0.423218 2.51859 0.878974 0.509905 0.406564 0.37174 0.355518 0.345671 0.340627
0.339157 0.339808 0.341113 0.341152 0.34041 0.339566 0.339496 0.339627 0.340458 0.34289
0.347026 0.352546 0.360139 0.369583 0.380308 0.391474 0.402097 0.411372 0.418057 0.422287
0.424583 0.425641 0.426036 0.426105 0.425995 0.42576 0.425514 0.425166 0.424776 0.424453
0.424216 0.424021 0.423904 0.423802 0.423751 0.423706 0.4236 0.42351 0.423452 0.423366
0.423315 0.423166 2.51854 0.878964 0.509931 0.406535 0.371803 0.355516 0.345673 0.340633
0.339176 0.339821 0.341114 0.341167 0.340423 0.339525 0.339428 0.33957 0.340397 0.342808
0.346907 0.352473 0.36012 0.369601 0.38032 0.39148 0.402124 0.411361 0.418039 0.422276
0.424577 0.425616 0.426008 0.426078 0.425977 0.425751 0.42546 0.425065 0.424678 0.424382
0.424129 0.423908 0.42378 0.423722 0.423639 0.42362 0.423587 0.423564 0.423521 0.423431
0.423342 0.423101 0.527824 0.215741 0.0890258 0.219161 0.129727 0.369057 0.182259 0.180842
0.0685635 0.165707 0.693487 0.151031 0.0604882 0.0527601 0.204158 0.251895 1.22994 0.228776
0.518567 0.172363 0.926579 0.577353 0.764137 0.81827 0.145332 0.129405 0.362386 0.0582145
0.122227 0.19631 0.953173 1.67572 1.42685 1.68498 0.0382176 0.0460132 0.301382 0.408463
0.332337 0.447153 1.1954 0.447892 1.68582 1.00122 0.559245 0.224701 0.250227 0.123308
0.201636 0.68169 0.276702 0.559511 0.234868 0.114723 0.415611 0.112179 0.523198 0.213821
0.135459 0.955483 0.411175 0.723994 2.1725 1.98138 2.24997 1.9774 0.609473 0.206937
1.02464 1.20348 0.345609 0.465396 1.05273 0.912891 0.460277 0.929269 0.715219 1.99421
0.948677 0.759757 0.577429 0.209696 0.678359 0.959453 0.204464 1.92336 2.17286 0.706732
0.727348 1.27256 1.71247 0.678665 1.14968 1.05937 0.65327 0.0893949 0.10224 0.881322
0.729024 1.00005 0.896567 0.911428 1.34919 0.238356 1.01267 1.9002 1.88781 1.84061
1.89215 0.0711226 0.0229342 0.222828 0.123006 0.0503417 0.5835 0.804261 1.99011 0.15504
0.39181 0.814614 0.831992 1.89546 1.91783 1.56263 0.226259 0.274416 0.0491781 0.201124
0.352007 1.46744 0.763071 0.316792 0.186251 1.90183 1.44118 1.67473 1.45069 1.38928
0.260037 0.895986 0.715763 1.57161 0.491604 0.853492 1.60744 0.868087 1.66207 0.858648
0.118457 1.14661 1.3879 0.283536 0.503803 0.779764 0.816692 0.340377 1.40557 1.33072
0.127029 1.62008 1.7715 1.71368 1.69046 0.835389 1.54727 0.857377 1.19617 0.546485
0.224346 0.547355 1.38372 0.22653 1.36876 0.279705 0.898818 0.265497 0.303482 0.668323
0.490415 0.439698 0.21882 0.49294 0.45196 0.0835859 0.484282 0.174009 0.326965 0.292689
0.168585 0.236892 0.416646 1.03052 0.197672 0.190319 1.07402 1.22572 0.499981 0.416526
0.0927579 0.0506268 0.103908 0.0175102 0.0472747 1.06132 0.644812 0.602774 0.808456 0.0806386
0.745764 0.329875 0.908028 0.164869 0.412367 0.473647 1.00304 0.782014 1.09158 0.406102
0.884141 0.866764 1.78353 0.451331 0.442175 0.401674 0.756828 0.211667 0.894652 0.218306
0.621555 0.33956 0.289407 0.580241 0.29857 0.548683 1.01182 0.766655 1.14419 0.761249
0.672262 0.168188 0.597515 0.790286 0.164495 0.41617 1.66194 0.405849 1.84033 0.804566
2.03151 0.156718 0.661112 0.425983 1.83856 1.4075 1.25514 0.828341 0.170805 1.09174
0.436384 0.468756 0.590152 0.297872 1.35254 1.14883 0.394773 0.909359 1.14957 1.73945
0.255965 0.13533 2.09886 0.336399 0.300865 0.198985 0.0351619 0.403705 0.121814 0.430157
0.815303 1.00694 1.27082 0.419947 0.380374 1.5747 1.27442 1.8751 0.487876 2.14182
2.15788 2.11293 2.18004 0.435857 0.419461 0.12918 1.11306 0.868039 0.632729 0.219249
0.251784 1.55994 0.878417 0.965307 0.219102 0.235319 1.8421 1.7362 1.7903 1.80998
1.50153 0.57552 1.22072 1.31087 1.64376 1.62435 1.73864 1.45449 0.591555 0.499394
0.254124 1.54228 0.966026 0.511998 0.701059 0.931004 1.1678 1.37979 1.13707 1.28267
0.43062 1.83545 1.68266 2.02728 1.02599 0.709305 0.629269 0.0702527 0.13003 0.0740955
0.131107 0.260203 0.747977 1.61809 1.58109 0.53314 0.253007 0.287231 1.4678 0.163322
0.253394 0.707429 0.858621 1.16964 1.16964 0.402216 0.602705 1.35463 1.48367 0.325202
0.0375388 0.209814 0.100738 0.375413 0.15579 1.45649 0.444075 1.34919 0.158563 0.899471
1.60248 0.132183 1.73091 0.0843567 0.153097 0.194733 0.749054 1.7004 1.80054 1.78683
1.18482 1.62504 1.77093 1.84297 0.928974 0.942255 0.602198 0.456926 1.66922 0.623236
1.02853 1.6374 1.01602 0.222234 1.11893 0.126053 0.687081 0.129465 0.558203 0.341251
1.23541 0.431424 0.641371 1.38032 0.348191 0.288481 0.290735 0.301476 0.212457 0.163239
0.406266 0.202446 0.169226 0.184808 0.950364 0.451983 0.386214 0.156501 0.459825 0.0938132
0.656553 1.50363 0.534518 1.4947 0.630254 0.166409 0.20846 0.0701936 0.632114 0.306319
0.307314 0.637466 0.723994 0.209906 0.940414 0.210065 0.178729 0.111688 0.167267 0.167591
0.210045 0.0710833 0.155091 0.257589 0.245148 0.105314 0.792445 0.482362 0.136364 0.106888
0.359848 0.37542 0.604217 0.0737026 0.681771 0.173017 0.218391 1.00848 1.33021 0.115585
0.482237 0.764976 0.299912 0.207999 0.822345 0.647169 2.00596 1.5211 1.6495 1.20753
1.18988 0.366298 1.88573 1.69926 1.46895 1.68319 0.594183 1.36845 0.702676 0.865325
0.769771 0.0430258 0.147117 0.117259 0.574359 0.272744 1.09345 1.10401 1.53041 0.889204
0.246733 0.738403 0.442444 2.07124 0.47538 0.776368 2.09588 1.72045 1.66256 0.843753
1.65667 1.16077 2.27383 1.4801 0.142797 0.393372 0.248389 0.526768 0.799314 0.425036
0.79585 1.35105 0.272755 0.403558 0.217657 0.679184 0.694302 0.143537 0.24769 0.113334
0.189049 0.122702 0.176735 0.622834 2.27703 2.07255 2.15128 1.196 1.14904 2.31243
2.61938 1.14013 1.28589 1.38877 0.35451 0.530147 0.138148 0.0453797 0.329693 0.0251701
1.61606 0.757482 0.494117 1.74305 1.78459 0.757817 0.985435 0.86858 0.191024 1.30813
0.394644 0.831681 0.615637 0.788204 0.403746 0.0899943 0.123658 0.451153 0.304999 1.62072
0.41886 1.34248 0.500824 0.0759129 1.19626 2.24687 0.427607 2.2536 1.78977 0.319158
0.198115 0.850773 1.68377 0.688028 0.69549 1.45486 2.2163 0.408752 2.044 0.557264
1.66973 0.60798 1.02242 1.26931 1.19242 0.641082 1.93719 1.94296 1.59954 0.073457
0.0880412 1.18919 1.1096 1.66408 1.49607 0.78674 0.146589 1.32347 0.609236 0.817623
0.969976 1.30977 0.546405 0.761477 0.729855 0.311036 1.14272 0.923224 1.20118 0.177664
0.840602 0.507762 0.326206 1.77126 0.40985 0.0615423 0.423515 1.60864 0.668164 0.741318
1.55148 0.606376 0.228911 0.437451 0.778291 0.773839 2.05184 1.93262 1.44424 2.09934
0.741159 0.472323 0.366705 0.887523 0.631296 0.416333 1.23521 0.532298 1.26764 1.2041
1.22517 0.737823 0.950152 0.950152 0.626305 1.80744 0.836158 0.844098 0.426614 0.197028
0.799818 1.39081 1.51919 1.26586 1.37088 1.56355 0.685926 0.221165 0.515014 0.260673
0.323076 0.215019 0.126445 0.901725 1.85964 1.5207 0.644852 1.7725 1.90147 1.9206