# vtk DataFile Version 2.0
sampleSurface
ASCII
DATASET POLYDATA
POINTS 10479 float
-1324.23 -1350.14 10 -1423.91 -1350.14 10 -1423.91 -1421.2 10 -1324.23 -1421.2
10 -1224.56 -1350.14 10 -1224.56 -1421.2 10 -1124.89 -1350.14 10
-1124.89 -1421.2 10 -1025.21 -1350.14 10 -1025.21 -1421.2 10 -925.54
-1350.14 10 -925.54 -1421.2 10 -825.867 -1350.14 10 -825.867 -1421.2
10 -726.193 -1350.14 10 -726.193 -1421.2 10 -626.52 -1350.14 10
-626.52 -1421.2 10 -526.846 -1350.14 10 -526.846 -1421.2 10 -427.173
-1350.14 10 -427.173 -1421.2 10 -327.499 -1350.14 10 -327.499 -1421.2
10 -227.826 -1350.14 10 -227.826 -1421.2 10 -128.152 -1350.14 10
-128.152 -1421.2 10 -28.4787 -1350.14 10 -28.4787 -1421.2 10 71.1948
-1350.14 10 71.1948 -1421.2 10 170.868 -1350.14 10 170.868 -1421.2
10 270.542 -1350.14 10 270.542 -1421.2 10 370.215 -1350.14 10
370.216 -1421.2 10 469.889 -1350.14 10 469.889 -1421.2 10 569.563
-1350.14 10 569.563 -1421.2 10 669.236 -1350.14 10 669.236 -1421.2
10 768.91 -1350.14 10 768.91 -1421.2 10 868.583 -1350.14 10
868.583 -1421.2 10 968.257 -1350.14 10 968.257 -1421.2 10 1067.93
-1350.14 10 1067.93 -1421.2 10 1167.6 -1350.14 10 1167.6 -1421.2
10 1267.28 -1350.14 10 1267.28 -1421.2 10 1366.95 -1350.14 10
1366.95 -1421.2 10 1466.62 -1350.14 10 1466.62 -1421.2 10 1566.3
-1350.14 10 1566.3 -1421.2 10 1665.97 -1350.14 10 1665.97 -1421.2
10 1765.65 -1350.14 10 1765.65 -1421.2 10 1865.32 -1350.14 10
1865.32 -1421.2 10 1964.99 -1350.14 10 1964.99 -1421.2 10 2064.67
-1350.14 10 2064.67 -1421.2 10 2164.34 -1350.14 10 2164.34 -1421.2
10 2264.01 -1350.14 10 2264.01 -1421.2 10 2363.69 -1350.14 10
2363.69 -1421.2 10 2463.36 -1350.14 10 2463.36 -1421.2 10 2563.03
-1350.14 10 2563.03 -1421.2 10 2662.71 -1350.14 10 2662.71 -1421.2
10 2762.38 -1350.14 10 2762.38 -1421.2 10 2862.06 -1350.14 10
2862.06 -1421.2 10 2961.73 -1350.14 10 2961.73 -1421.2 10 3061.4
-1350.14 10 3061.4 -1421.2 10 3161.08 -1350.14 10 3161.08 -1421.2
10 3260.75 -1350.14 10 3260.75 -1421.2 10 3360.42 -1350.14 10
3360.42 -1421.2 10 3460.1 -1350.14 10 3460.1 -1421.2 10 3559.77
-1421.2 10 3559.77 -1350.14 10 -1324.23 -1279.08 10 -1423.91 -1279.08
10 -1224.56 -1279.08 10 -1124.89 -1279.08 10 -1025.21 -1279.08 10
-925.54 -1279.08 10 -825.867 -1279.08 10 -726.193 -1279.08 10 -626.52
-1279.08 10 -526.846 -1279.08 10 -427.173 -1279.08 10 -327.499 -1279.08
10 -227.826 -1279.08 10 -128.152 -1279.08 10 -28.4787 -1279.08 10
71.1948 -1279.08 10 170.868 -1279.08 10 270.542 -1279.08 10 370.215
-1279.08 10 469.889 -1279.08 10 569.563 -1279.08 10 669.236 -1279.08
10 768.91 -1279.08 10 868.583 -1279.08 10 968.257 -1279.08 10
1067.93 -1279.08 10 1167.6 -1279.08 10 1267.28 -1279.08 10 1366.95
-1279.08 10 1466.62 -1279.08 10 1566.3 -1279.08 10 1665.97 -1279.08
10 1765.65 -1279.08 10 1865.32 -1279.08 10 1964.99 -1279.08 10
2064.67 -1279.08 10 2164.34 -1279.08 10 2264.01 -1279.08 10 2363.69
-1279.08 10 2463.36 -1279.08 10 2563.03 -1279.08 10 2662.71 -1279.08
10 2762.38 -1279.08 10 2862.06 -1279.08 10 2961.73 -1279.08 10
3061.4 -1279.08 10 3161.08 -1279.08 10 3260.75 -1279.08 10 3360.42
-1279.08 10 3460.1 -1279.08 10 3559.77 -1279.08 10 -1324.23 -1208.02
10 -1423.91 -1208.02 10 -1224.56 -1208.02 10 -1124.89 -1208.02 10
-1025.21 -1208.02 10 -925.54 -1208.02 10 -825.867 -1208.02 10 -726.193
-1208.02 10 -626.52 -1208.02 10 -526.846 -1208.02 10 -427.173 -1208.02
10 -327.499 -1208.02 10 -227.826 -1208.02 10 -128.152 -1208.02 10
-28.4788 -1208.02 10 71.1947 -1208.02 10 170.868 -1208.02 10 270.542
-1208.02 10 370.215 -1208.02 10 469.889 -1208.02 10 569.563 -1208.02
10 669.236 -1208.02 10 768.91 -1208.02 10 868.583 -1208.02 10
968.257 -1208.02 10 1067.93 -1208.02 10 1167.6 -1208.02 10 1267.28
-1208.02 10 1366.95 -1208.02 10 1466.62 -1208.02 10 1566.3 -1208.02
10 1665.97 -1208.02 10 1765.65 -1208.02 10 1865.32 -1208.02 10
1964.99 -1208.02 10 2064.67 -1208.02 10 2164.34 -1208.02 10 2264.01
-1208.02 10 2363.69 -1208.02 10 2463.36 -1208.02 10 2563.03 -1208.02
10 2662.71 -1208.02 10 2762.38 -1208.02 10 2862.06 -1208.02 10
2961.73 -1208.02 10 3061.4 -1208.02 10 3161.08 -1208.02 10 3260.75
-1208.02 10 3360.42 -1208.02 10 3460.1 -1208.02 10 3559.77 -1208.02
10 -1324.23 -1136.96 10 -1423.91 -1136.96 10 -1224.56 -1136.96 10
-1124.89 -1136.96 10 -1025.21 -1136.96 10 -925.54 -1136.96 10 -825.867
-1136.96 10 -726.193 -1136.96 10 -626.52 -1136.96 10 -526.846 -1136.96
10 -427.173 -1136.96 10 -327.499 -1136.96 10 -227.826 -1136.96 10
-128.152 -1136.96 10 -28.4788 -1136.96 10 71.1947 -1136.96 10 170.868
-1136.96 10 270.542 -1136.96 10 370.215 -1136.96 10 469.889 -1136.96
10 569.563 -1136.96 10 669.236 -1136.96 10 768.91 -1136.96 10
868.583 -1136.96 10 968.257 -1136.96 10 1067.93 -1136.96 10 1167.6
-1136.96 10 1267.28 -1136.96 10 1366.95 -1136.96 10 1466.62 -1136.96
10 1566.3 -1136.96 10 1665.97 -1136.96 10 1765.65 -1136.96 10
1865.32 -1136.96 10 1964.99 -1136.96 10 2064.67 -1136.96 10 2164.34
-1136.96 10 2264.01 -1136.96 10 2363.69 -1136.96 10 2463.36 -1136.96
10 2563.03 -1136.96 10 2662.71 -1136.96 10 2762.38 -1136.96 10
2862.06 -1136.96 10 2961.73 -1136.96 10 3061.4 -1136.96 10 3161.08
-1136.96 10 3260.75 -1136.96 10 3360.42 -1136.96 10 3460.1 -1136.96
10 3559.77 -1136.96 10 -1324.23 -1065.9 10 -1423.91 -1065.9 10
-1224.56 -1065.9 10 -1124.89 -1065.9 10 -1025.21 -1065.9 10 -925.54
-1065.9 10 -825.867 -1065.9 10 -726.193 -1065.9 10 -626.52 -1065.9
10 -526.846 -1065.9 10 -427.173 -1065.9 10 -327.499 -1065.9 10
-227.826 -1065.9 10 -128.152 -1065.9 10 -28.4788 -1065.9 10 71.1946
-1065.9 10 170.868 -1065.9 10 270.542 -1065.9 10 370.215 -1065.9
10 469.889 -1065.9 10 569.563 -1065.9 10 669.236 -1065.9 10
768.91 -1065.9 10 868.583 -1065.9 10 968.257 -1065.9 10 1067.93
-1065.9 10 1167.6 -1065.9 10 1267.28 -1065.9 10 1366.95 -1065.9
10 1466.62 -1065.9 10 1566.3 -1065.9 10 1665.97 -1065.9 10
1765.65 -1065.9 10 1865.32 -1065.9 10 1964.99 -1065.9 10 2064.67
-1065.9 10 2164.34 -1065.9 10 2264.01 -1065.9 10 2363.69 -1065.9
10 2463.36 -1065.9 10 2563.03 -1065.9 10 2662.71 -1065.9 10
2762.38 -1065.9 10 2862.06 -1065.9 10 2961.73 -1065.9 10 3061.4
-1065.9 10 3161.08 -1065.9 10 3260.75 -1065.9 10 3360.42 -1065.9
10 3460.1 -1065.9 10 3559.77 -1065.9 10 -1324.23 -994.838 10
-1423.91 -994.838 10 -1224.56 -994.838 10 -1124.89 -994.838 10 -1025.21
-994.838 10 -925.54 -994.838 10 -825.867 -994.838 10 -726.193 -994.838
10 -626.52 -994.838 10 -526.846 -994.838 10 -427.173 -994.838 10
-327.499 -994.837 10 -227.826 -994.837 10 -128.152 -994.836 10 -28.4788
-994.836 10 71.1945 -994.836 10 170.868 -994.836 10 270.542 -994.836
10 370.215 -994.837 10 469.889 -994.837 10 569.563 -994.838 10
669.236 -994.838 10 768.91 -994.838 10 868.584 -994.838 10 968.257
-994.838 10 1067.93 -994.838 10 1167.6 -994.838 10 1267.28 -994.838
10 1366.95 -994.838 10 1466.62 -994.839 10 1566.3 -994.839 10
1665.97 -994.839 10 1765.65 -994.839 10 1865.32 -994.839 10 1964.99
-994.839 10 2064.67 -994.839 10 2164.34 -994.839 10 2264.01 -994.839
10 2363.69 -994.839 10 2463.36 -994.839 10 2563.03 -994.839 10
2662.71 -994.839 10 2762.38 -994.839 10 2862.06 -994.839 10 2961.73
-994.839 10 3061.4 -994.839 10 3161.08 -994.839 10 3260.75 -994.839
10 3360.42 -994.839 10 3460.1 -994.839 10 3559.77 -994.839 10
-1324.23 -923.778 10 -1423.91 -923.778 10 -1224.56 -923.778 10 -1124.89
-923.778 10 -1025.21 -923.778 10 -925.54 -923.779 10 -825.867 -923.779
10 -875.703 -923.779 10 -726.193 -923.779 10 -776.03 -923.779 10
-626.52 -923.778 10 -676.356 -923.779 10 -526.846 -923.778 10 -576.683
-923.778 10 -427.172 -923.778 10 -477.009 -923.778 10 -327.499 -923.777
10 -377.336 -923.778 10 -227.825 -923.776 10 -277.662 -923.777 10
-128.152 -923.776 10 -177.989 -923.776 10 -28.4788 -923.776 10 -78.3154
-923.776 10 71.1946 -923.776 10 21.3579 -923.776 10 170.868 -923.776
10 121.031 -923.776 10 270.542 -923.776 10 220.705 -923.776 10
370.216 -923.777 10 320.379 -923.776 10 469.889 -923.778 10 420.052
-923.778 10 569.563 -923.778 10 519.726 -923.778 10 669.237 -923.778
10 619.4 -923.778 10 768.91 -923.779 10 719.073 -923.778 10
868.584 -923.779 10 818.747 -923.779 10 968.257 -923.779 10 1067.93
-923.779 10 1167.6 -923.778 10 1267.28 -923.778 10 1366.95 -923.779
10 1466.62 -923.779 10 1566.3 -923.779 10 1665.97 -923.779 10
1765.64 -923.779 10 1865.32 -923.779 10 1964.99 -923.779 10 2064.67
-923.779 10 2164.34 -923.779 10 2264.01 -923.779 10 2363.69 -923.779
10 2463.36 -923.779 10 2563.03 -923.779 10 2662.71 -923.779 10
2762.38 -923.779 10 2862.06 -923.779 10 2961.73 -923.779 10 3061.4
-923.779 10 3161.08 -923.779 10 3260.75 -923.779 10 3360.42 -923.779
10 3460.1 -923.779 10 3559.77 -923.779 10 -1324.23 -852.718 10
-1423.91 -852.718 10 -1224.56 -852.718 10 -1124.89 -852.718 10 -1025.21
-852.718 10 -925.54 -888.249 10 -925.54 -852.719 10 -875.703 -888.249
10 -776.03 -888.249 10 -825.867 -888.249 10 -676.356 -888.249 10
-726.193 -888.249 10 -576.683 -888.249 10 -626.52 -888.249 10 -477.009
-888.249 10 -526.846 -888.249 10 -377.336 -888.249 10 -427.172 -888.249
10 -277.662 -888.249 10 -327.499 -888.249 10 -177.989 -888.248 10
-227.825 -888.248 10 -78.315 -888.248 10 -128.152 -888.248 10 21.3584
-888.248 10 -28.4783 -888.248 10 121.032 -888.248 10 71.1952 -888.248
10 220.706 -888.248 10 170.869 -888.248 10 320.379 -888.249 10
270.543 -888.248 10 420.053 -888.249 10 370.216 -888.249 10 519.726
-888.249 10 469.889 -888.249 10 619.4 -888.249 10 569.563 -888.249
10 719.073 -888.249 10 669.237 -888.249 10 818.747 -888.249 10
768.91 -888.249 10 968.257 -852.719 10 918.421 -852.719 10 868.584
-852.719 10 868.584 -888.249 10 1067.93 -852.719 10 1167.6 -852.718
10 1267.28 -852.718 10 1366.95 -852.719 10 1466.62 -852.719 10
1566.3 -852.719 10 1665.97 -852.719 10 1765.64 -852.719 10 1865.32
-852.719 10 1964.99 -852.719 10 2064.67 -852.719 10 2164.34 -852.719
10 2264.01 -852.719 10 2363.69 -852.719 10 2463.36 -852.719 10
2563.03 -852.719 10 2662.71 -852.719 10 2762.38 -852.719 10 2862.06
-852.719 10 2961.73 -852.719 10 3061.4 -852.719 10 3161.08 -852.719
[...]
CELL_DATA 9835
FIELD attributes 2
k 1 9835 float
3.51881 2.23188 1.95951 1.84401 1.78058 1.73779 1.70881 1.68866 1.67379 1.66086 1.64286
1.61977 1.59471 1.57595 1.56385 1.55653 1.55256 1.55069 1.55026 1.55166 1.55943
1.58159 1.61904 1.66991 1.73098 1.79794 1.8665 1.9287 1.9791 2.01586 2.04003
2.05442 2.06214 2.06561 2.06643 2.06573 2.06289 2.0596 2.05683 2.05429 2.0523
2.05079 2.05002 2.04949 2.04919 2.04883 2.04848 2.04786 2.04738 2.04656 3.5188
2.23198 1.95942 1.84412 1.78067 1.73767 1.70875 1.68865 1.67375 1.66078 1.64271
1.61955 1.5943 1.57541 1.56357 1.5566 1.55262 1.55076 1.55049 1.55216 1.56031
1.58264 1.61961 1.67012 1.73099 1.79779 1.86626 1.92844 1.97895 2.01584 2.04012
2.05463 2.06247 2.0661 2.06707 2.0665 2.06371 2.06037 2.05755 2.05497 2.05313
2.05172 2.05064 2.0497 2.04907 2.04859 2.04828 2.04779 2.04714 2.04633 3.51878
2.23192 1.95946 1.84408 1.78066 1.7376 1.70878 1.68871 1.67381 1.66074 1.64246
1.61907 1.59379 1.5751 1.56363 1.55717 1.55361 1.55169 1.55116 1.55256 1.56042
1.58277 1.6199 1.67059 1.73129 1.79801 1.86648 1.92854 1.97891 2.01582 2.04024
2.05488 2.06287 2.0666 2.0676 2.06707 2.06449 2.06126 2.05846 2.05593 2.05418
2.05257 2.05146 2.05028 2.04958 2.04885 2.04845 2.0476 2.04687 2.04614 3.51871
2.23231 1.95909 1.8445 1.78103 1.73716 1.70852 1.68869 1.67367 1.6606 1.64189
1.61815 1.59255 1.57391 1.56232 1.55631 1.55366 1.55279 1.55269 1.55436 1.56238
1.58476 1.62123 1.67187 1.73247 1.79845 1.86651 1.92859 1.97917 2.01621 2.04066
2.05538 2.06355 2.06741 2.06838 2.06769 2.06475 2.06138 2.05836 2.05565 2.05355
2.05185 2.05087 2.05011 2.04963 2.04881 2.0483 2.04738 2.04656 2.04585 3.51869
2.23203 1.95937 1.84427 1.78085 1.73714 1.70878 1.68923 1.67363 1.66048 1.64137
1.61722 1.59151 1.57321 1.56248 1.55738 1.55511 1.55408 1.55394 1.55541 1.56331
1.5859 1.62208 1.67234 1.73206 1.7978 1.86609 1.9286 1.97967 2.0172 2.04216
2.05727 2.06548 2.06902 2.06959 2.06841 2.06487 2.06132 2.05808 2.05529 2.0532
2.05185 2.05111 2.05045 2.05001 2.04908 2.04848 2.04737 2.04651 2.04518 3.51757
2.23358 1.95849 1.84578 1.78086 1.73671 1.70832 1.68874 1.67304 1.66018 1.6395
1.61558 1.58997 1.571 1.55877 1.55334 1.55218 1.55281 1.55391 1.55719 1.56648
1.59021 1.62451 1.67487 1.73482 1.79907 1.86673 1.92926 1.98085 2.01891 2.04395
2.05879 2.06698 2.07124 2.07253 2.07169 2.06772 2.06294 2.05868 2.05533 2.05294
2.05149 2.0506 2.04991 2.04916 2.04781 2.04665 2.04533 2.04451 2.04354 3.51931
2.23154 1.96014 1.84244 1.7788 1.73701 1.70718 1.68938 1.67602 1.6631 1.64419
1.62005 1.59583 1.57867 1.56598 1.55941 1.55944 1.56128 1.56312 1.56652 1.57583
1.59927 1.63351 1.68116 1.73729 1.79763 1.86295 1.92394 1.97539 2.01408 2.0402
2.0562 2.06522 2.06985 2.07132 2.07077 2.06734 2.06201 2.0573 2.05361 2.05124
2.0502 2.0501 2.05057 2.05121 2.05163 2.05144 2.04987 2.04788 2.04491 3.52051
2.22908 1.9622 1.84282 1.76908 1.76412 1.69519 1.68624 1.6771 1.66487 1.65202
1.63798 1.63149 1.62922 1.64209 1.65417 1.65832 1.6612 1.66858 1.67594 1.69004
1.71559 1.75006 1.61706 1.71714 1.85451 1.94928 2.00048 2.02484 2.03663 2.04265
2.04374 2.03987 2.03014 2.02113 2.01686 2.01706 2.01972 2.02614 2.03286 2.03823
2.04194 2.04397 2.0451 2.04566 2.04587 2.04599 2.04602 2.04589 2.04512 3.51946
2.2299 1.96431 1.84091 1.78193 1.78828 1.64675 1.80615 1.75905 1.72272 1.70018
1.68887 1.68246 1.68136 1.68112 1.68704 1.70097 1.71426 1.72974 1.75137 1.78286
1.82235 1.86822 1.83258 1.77275 1.89312 1.97693 2.0183 2.03254 2.03506 2.03129
2.02059 2.00686 1.99201 1.98051 1.97691 1.97843 1.98548 1.99784 2.00894 2.01704
2.02146 2.0229 2.02274 2.02162 2.02057 2.0207 2.02319 2.02723 2.0347 3.52001
2.22953 1.9647 1.83973 1.78463 1.78191 1.64098 1.80299 1.75735 1.71979 1.69879
1.68845 1.68273 1.67929 1.68071 1.68985 1.70386 1.71932 1.73842 1.76306 1.79368
1.83008 1.87308 1.83506 1.77656 1.89281 1.97403 2.01432 2.02905 2.03213 2.02833
2.01649 2.00214 1.98776 1.97712 1.97405 1.97561 1.9823 1.99413 2.00503 2.01339
2.01845 2.02067 2.02114 2.02091 2.02026 2.02018 2.02159 2.02466 2.0323 3.5201
2.22955 1.96461 1.83995 1.78408 1.78311 1.6446 1.80591 1.75811 1.71964 1.69706
1.68383 1.67676 1.67437 1.67746 1.69094 1.70992 1.7272 1.74436 1.76535 1.79377
1.82989 1.87306 1.83408 1.77597 1.89089 1.97192 2.01267 2.02854 2.03285 2.03048
2.02035 2.00646 1.99198 1.98077 1.97702 1.97817 1.98375 1.99432 2.00437 2.01222
2.01715 2.01944 2.02004 2.02001 2.01986 2.02025 2.02271 2.02566 2.03272 3.52016
2.22961 1.96471 1.84055 1.78383 1.78352 1.64638 1.80584 1.75666 1.7179 1.69536
1.68165 1.67373 1.67129 1.67569 1.69351 1.71849 1.73632 1.75049 1.76857 1.79556
1.83121 1.87335 1.83375 1.77649 1.89014 1.97005 2.01062 2.0268 2.03134 2.029
2.0185 2.00409 1.98941 1.97845 1.97527 1.97673 1.98279 1.99346 2.00361 2.01163
2.01677 2.01927 2.01996 2.02 2.01985 2.02025 2.02303 2.0262 2.03325 3.52011
2.2297 1.96465 1.84138 1.78344 1.78428 1.64914 1.80735 1.75555 1.71596 1.69292
1.67871 1.66999 1.66514 1.66764 1.69336 1.72943 1.74835 1.75955 1.77313 1.79777
1.83308 1.87542 1.8359 1.77793 1.88937 1.96882 2.01007 2.02749 2.03396 2.03377
2.02665 2.01297 1.99812 1.9861 1.98122 1.98182 1.98605 1.99495 2.00368 2.01079
2.01555 2.01802 2.01878 2.01889 2.01889 2.01953 2.02265 2.02571 2.03267 3.52004
2.22992 1.96447 1.84241 1.78315 1.78559 1.65115 1.80875 1.75447 1.71434 1.69059
1.67579 1.66631 1.65696 1.64743 1.68505 1.74701 1.76399 1.76873 1.77603 1.79622
1.82879 1.86912 1.82777 1.77104 1.88121 1.96156 2.00332 2.02153 2.028 2.02652
2.01547 1.99883 1.98315 1.97278 1.97093 1.97317 1.98046 1.99096 2.00079 2.00876
2.0142 2.01713 2.01815 2.01835 2.01847 2.01929 2.02283 2.026 2.03298 3.51979
2.23044 1.96392 1.84351 1.78291 1.78724 1.6545 1.81146 1.75324 1.71218 1.6884
1.67338 1.66339 1.64989 1.60245 1.66942 1.7907 1.79086 1.78002 1.77983 1.79577
1.82648 1.86268 1.82758 1.78233 1.88845 1.96589 2.00879 2.03026 2.04039 2.04413
2.04236 2.03331 2.02111 2.01112 2.00544 2.00438 2.00515 2.00736 2.01079 2.01389
2.0161 2.01727 2.01764 2.01769 2.01769 2.01837 2.02177 2.02509 2.03245 3.51951
2.23105 1.96353 1.84442 1.78273 1.78831 1.65851 1.81493 1.75357 1.71156 1.68745
1.67076 1.66631 1.676 1.80543 1.79925 1.79015 1.79985 1.81601 1.85111 1.88436
1.88675 1.72667 1.88252 1.98842 2.04459 2.06138 2.0676 2.068 2.06109 2.04408
2.02461 2.008 1.99751 1.99424 1.99485 1.99795 2.00383 2.00936 2.01375 2.01657
2.01775 2.0181 2.01821 2.01896 2.02231 2.02559 2.03283 3.51928 2.23151 1.96335
1.84496 1.78266 1.78914 1.66295 1.81919 1.75406 1.71032 1.68555 1.66446 1.55163
1.48282 1.53775 1.62641 1.68757 1.78463 1.8225 1.50489 1.32141 1.42069 1.50037
1.5508 1.58282 1.59625 1.59728 1.59738 1.60025 1.61178 1.64167 1.68744 1.74221
1.80076 1.85682 1.90589 1.94553 1.97507 1.99389 2.00444 2.00929 2.01316 2.01635
2.02209 2.02562 2.03298 3.51909 2.23192 1.96316 1.84538 1.78272 1.78963 1.66656
1.82344 1.75678 1.71133 1.63396 1.78177 1.60745 1.55916 1.28973 1.15463 1.20295
1.38588 1.68656 1.86636 1.76642 1.57686 1.72015 1.82443 1.88498 1.91527 1.93097
1.94005 1.94336 1.94197 1.93361 1.92484 1.92299 1.92553 1.93533 1.95211 1.96988
1.98661 2.00001 2.009 2.01397 2.01585 2.01731 2.01897 2.02318 2.02636 2.03327
3.51919 2.23171 1.96318 1.84559 1.78273 1.79028 1.66978 1.82841 1.76026 1.7137
1.68426 1.67847 1.05838 1.67265 1.42589 1.6955 1.42251 1.39583 1.42252 1.46622
1.58592 1.53472 1.6559 1.76455 1.84687 1.89174 1.91374 1.92909 1.93998 1.94097
1.93534 1.92319 1.91897 1.92071 1.92886 1.9467 1.96618 1.98451 1.99911 2.0086
2.01367 2.01571 2.01731 2.01921 2.02362 2.02679 2.03352 3.51932 2.23135 1.96344
1.8454 1.78288 1.79057 1.67076 1.83263 1.76105 1.71616 1.70753 1.58154 1.3272
1.36021 0.937275 1.06901 1.11427 1.22651 1.31742 1.07296 1.06563 1.12302 1.2099
1.28762 1.35237 1.40106 1.43755 1.46835 1.50403 1.55071 1.61008 1.67914 1.75219
1.82262 1.88404 1.9328 1.96848 1.99239 2.00665 2.014 2.01697 2.01844 2.01995
2.0237 2.02666 2.03335 3.51925 2.23155 1.96342 1.84527 1.78292 1.7906 1.67209
1.8351 1.76405 1.71839 1.8231 0.712537 0.970925 1.29297 1.45715 1.604 1.68933
1.68483 1.79317 1.8548 1.88533 1.91106 1.93879 1.96022 1.96986 1.97018 1.96379
1.95439 1.95114 1.95236 1.9587 1.97176 1.98571 1.99819 2.00744 2.01324 2.01619
2.01735 2.01795 2.0191 2.02261 2.02583 2.03294 3.51909 2.23186 1.96322 1.84523
1.7829 1.79011 1.67001 1.83297 1.76327 1.72011 1.73375 1.85841 1.8177 1.36991
1.29788 1.83357 1.89746 1.90807 1.91841 1.91697 1.94503 1.98193 1.91182 1.77626
1.89745 1.99101 2.04485 2.06807 2.08367 2.09265 2.0923 2.08228 2.06187 2.04129
2.02363 2.011 2.00409 2.00227 2.00365 2.00835 2.01272 2.01557 2.01685 2.01732
2.01772 2.0189 2.02277 2.02606 2.03319 3.51922 2.23161 1.9633 1.84478 1.78292
1.78999 1.66794 1.82963 1.76068 1.71248 1.67953 1.56865 1.70932 1.95151 1.60651
2.10623 1.79256 1.67072 1.6887 1.74132 1.80292 1.85995 1.84112 1.75427 1.87663
1.96982 2.02494 2.05278 2.06484 2.06589 2.05761 2.03741 2.01558 1.99667 1.98436
1.98021 1.98105 1.98636 1.99564 2.00421 2.01092 2.01521 2.01727 2.01801 2.01848
2.01953 2.02292 2.02598 2.03294 3.51961 2.23091 1.96366 1.84404 1.78299 1.7891
1.66392 1.82629 1.7584 1.70916 1.67188 1.62858 1.64298 1.46985 1.41004 1.79626
1.77102 1.87265 1.78206 1.76962 1.7784 1.80317 1.84247 1.85188 1.77483 1.89337
1.9834 2.03465 2.06109 2.07151 2.0712 2.05972 2.03433 2.00767 1.98585 1.97383
1.97184 1.97505 1.98517 1.99634 2.00572 2.01245 2.01631 2.01787 2.01829 2.01856
2.01948 2.02292 2.02613 2.03314 3.51984 2.23037 1.96406 1.84315 1.7831 1.78737
1.66019 1.82252 1.757 1.70885 1.67619 1.65271 1.87255 1.53099 1.41406 1.57621
1.70717 1.75721 1.79097 1.82145 1.85252 1.89073 1.83963 1.76977 1.88497 1.96617
2.008 2.02382 2.02674 2.02196 2.00853 1.99383 1.9805 1.97244 1.97186 1.97458
1.9825 1.99293 2.00262 2.01041 2.0156 2.01833 2.01921 2.01937 2.01938 2.01997
2.02291 2.02597 2.03296 3.52002 2.22981 1.96471 1.84176 1.78349 1.78537 1.65688
1.8173 1.75597 1.71002 1.68103 1.66455 1.56002 1.46718 1.62199 1.70575 1.74335
1.76858 1.79766 1.83009 1.87134 1.83167 1.76965 1.88126 1.95944 1.99846 2.01273
2.01546 2.01117 1.99877 1.98459 1.97137 1.96369 1.96345 1.9668 1.9762 1.98805
1.99909 2.00806 2.01421 2.01756 2.0188 2.01909 2.01928 2.02005 2.0232 2.02614
2.03297 3.52013 2.22961 1.96481 1.8406 1.78389 1.78444 1.6534 1.81292 1.75594
1.71196 1.68547 1.67102 1.66786 1.66823 1.65099 1.71392 1.73893 1.74809 1.75547
1.76932 1.79307 1.82853 1.87214 1.83443 1.77361 1.88665 1.96491 2.00365 2.01843
2.02287 2.02115 2.01224 1.99931 1.98593 1.976 1.97349 1.97515 1.98128 1.99164
2.00171 2.00995 2.01554 2.01852 2.01951 2.0197 2.01976 2.02039 2.02326 2.02618
2.03302 3.52013 2.22951 1.96472 1.83989 1.78407 1.78456 1.64969 1.80911 1.75582
1.71368 1.68856 1.67471 1.67049 1.67025 1.67551 1.70273 1.72585 1.73898 1.75236
1.77112 1.79817 1.83407 1.87692 1.83903 1.77511 1.8887 1.9682 2.00795 2.02379
2.02912 2.02806 2.02 2.007 1.99307 1.98178 1.97747 1.97827 1.98291 1.99266
2.00239 2.01045 2.01591 2.0188 2.01975 2.01994 2.02007 2.02078 2.0237 2.02658
2.03325 3.52019 2.22944 1.96467 1.83945 1.78424 1.78449 1.64704 1.80712 1.75615
1.71491 1.69113 1.6776 1.6724 1.6725 1.67905 1.69669 1.71495 1.72979 1.74639
1.7681 1.7969 1.8335 1.87663 1.83838 1.77353 1.88852 1.96928 2.01021 2.02656
2.03109 2.02864 2.01823 2.00436 1.99031 1.97957 1.97618 1.97743 1.98301 1.99345
2.00355 2.01165 2.01692 2.01956 2.02035 2.02045 2.0204 2.02092 2.02371 2.02673
2.0335 3.52013 2.22939 1.96454 1.83919 1.78425 1.7844 1.64526 1.80618 1.75685
1.71622 1.69291 1.67953 1.67353 1.67273 1.67812 1.69104 1.70658 1.72258 1.7413
1.76442 1.79383 1.83101 1.87511 1.83779 1.77301 1.88913 1.97063 2.01157 2.02717
2.03103 2.02821 2.01772 2.00404 1.98997 1.97931 1.976 1.97728 1.98304 1.99382
2.00411 2.01226 2.01747 2.02 2.02077 2.02081 2.0207 2.02105 2.02342 2.02644
2.03346 3.52006 2.22939 1.9646 1.83929 1.78458 1.78281 1.64373 1.80721 1.75852
1.71764 1.69411 1.6814 1.67497 1.67268 1.67576 1.68493 1.69862 1.71534 1.73593
1.76058 1.79107 1.82922 1.87472 1.83884 1.77413 1.89078 1.97224 2.01268 2.02744
2.03054 2.02682 2.01524 2.00125 1.98733 1.97708 1.97417 1.97575 1.98243 1.99419
2.00508 2.01342 2.01853 2.02084 2.02139 2.02119 2.02058 2.02049 2.02191 2.0252
2.03297 3.51946 2.22978 1.9643 1.8407 1.78178 1.77403 1.63574 1.80403 1.75985
1.72036 1.69718 1.68559 1.67925 1.67557 1.67559 1.68047 1.69225 1.70768 1.7281
1.75445 1.78622 1.82458 1.87058 1.83531 1.7707 1.89152 1.9754 2.01673 2.03073
2.03304 2.02903 2.01821 2.00469 1.99015 1.97899 1.97571 1.9774 1.98471 1.99714
2.00829 2.01651 2.02114 2.0228 2.02275 2.02182 2.02093 2.0211 2.02373 2.02766
2.03493 3.52051 2.22901 1.96214 1.84275 1.76916 1.77608 1.75719 1.76026 1.72241
1.70143 1.69078 1.67862 1.6723 1.67242 1.67748 1.68577 1.69141 1.69567 1.70156
1.71405 1.73297 1.76226 1.79608 1.61438 1.71473 1.85234 1.94723 1.9984 2.02262
2.03434 2.0404 2.04163 2.03804 2.02865 2.02001 2.01603 2.01633 2.01915 2.02578
2.03263 2.03807 2.04181 2.04389 2.04505 2.04568 2.04594 2.04618 2.04634 2.04634
2.04571 3.51932 2.23155 1.95997 1.84253 1.77858 1.73693 1.70719 1.68928 1.67585
1.66355 1.64523 1.62063 1.59659 1.57839 1.56601 1.55952 1.55907 1.56002 1.56076
1.56312 1.57172 1.59507 1.62975 1.67728 1.73367 1.79431 1.85991 1.92115 1.97285
2.01179 2.03813 2.05431 2.06348 2.06818 2.06968 2.06928 2.06623 2.06115 2.05667
2.05326 2.05113 2.05027 2.05026 2.0508 2.05149 2.05196 2.05178 2.05021 2.04804
2.04516 3.51761 2.23348 1.9585 1.84571 1.78086 1.73667 1.70838 1.6887 1.6734
1.66044 1.64082 1.61627 1.59115 1.57197 1.56003 1.55419 1.55218 1.55206 1.55224
1.55468 1.56333 1.58695 1.62159 1.67226 1.73242 1.7967 1.86433 1.92687 1.97851
2.01659 2.04166 2.05659 2.06496 2.06946 2.07101 2.07041 2.06691 2.06231 2.05811
2.05473 2.05238 2.05099 2.05035 2.04991 2.04937 2.04819 2.04692 2.04551 2.04465
2.04365 3.51869 2.23199 1.95939 1.8442 1.78088 1.7372 1.70896 1.68923 1.67414
1.66076 1.642 1.61791 1.59269 1.57428 1.56332 1.55782 1.55483 1.55294 1.55209
1.55317 1.56048 1.58283 1.61936 1.66986 1.72978 1.79559 1.86386 1.92638 1.97751
2.01503 2.03996 2.05508 2.06339 2.06704 2.06776 2.06688 2.06383 2.06034 2.05733
2.05483 2.05294 2.05176 2.05115 2.05068 2.05018 2.04913 2.04847 2.04733 2.0466
2.04552 3.5187 2.23231 1.95909 1.84452 1.78105 1.73725 1.70866 1.68889 1.67403
1.66093 1.64243 1.61886 1.5935 1.57466 1.56287 1.55652 1.55326 1.55168 1.55104
1.55234 1.55983 1.58196 1.61871 1.66942 1.73012 1.79627 1.86441 1.92643 1.97686
2.0138 2.03833 2.05323 2.06158 2.06561 2.06684 2.06643 2.06387 2.06047 2.05753
2.05494 2.05297 2.05154 2.05081 2.05012 2.04958 2.04871 2.04818 2.04749 2.04698
2.04638 3.51875 2.23195 1.95945 1.84411 1.78071 1.73772 1.70894 1.68895 1.67421
1.66106 1.64286 1.61972 1.59462 1.57576 1.56409 1.55717 1.55313 1.5506 1.5495
1.55059 1.55802 1.58017 1.6175 1.66832 1.72911 1.79591 1.8644 1.92642 1.97675
2.01366 2.03816 2.05294 2.06105 2.06485 2.06593 2.06549 2.06296 2.05987 2.05726
2.05497 2.05332 2.05185 2.05093 2.05001 2.04946 2.04878 2.04821 2.04753 2.04692
2.0464 3.51877 2.232 1.95942 1.84416 1.78073 1.7378 1.70893 1.68892 1.67419
1.66103 1.64314 1.62013 1.59512 1.57598 1.56388 1.55647 1.5521 1.54976 1.549
1.55033 1.55801 1.58008 1.61719 1.66785 1.72885 1.79579 1.86434 1.92649 1.97698
2.0138 2.03796 2.05238 2.06024 2.06389 2.06483 2.06432 2.0619 2.05884 2.05635
2.05426 2.05279 2.0514 2.05041 2.04949 2.04894 2.04844 2.04803 2.04743 2.04686
2.04615 3.51878 2.2319 1.95952 1.84406 1.78064 1.73793 1.70899 1.68895 1.67426
1.66108 1.6433 1.62032 1.59545 1.57637 1.56406 1.55647 1.55209 1.54958 1.54864
1.54978 1.5572 1.57916 1.61675 1.66769 1.72881 1.79583 1.86441 1.92656 1.97706
2.0139 2.03811 2.05242 2.06008 2.06361 2.06456 2.06407 2.06157 2.05834 2.05563
2.0535 2.05203 2.05071 2.04986 2.04925 2.04889 2.04861 2.04833 2.04781 2.04734
2.04644 1.74188 1.95259 1.68322 1.55155 1.70385 1.3264 2.32456 1.10504 1.20471
2.12639 1.76094 2.24531 1.23758 1.7509 1.06423 1.58859 1.84244 1.38941 2.05894
1.23494 0.926759 0.960651 0.960641 0.857282 0.917408 1.75735 1.13926 1.18211 1.12426
1.04053 1.07075 0.852681 1.00137 0.876621 0.964013 0.978559 0.98089 1.22805 1.69406
1.63904 1.65519 1.61507 1.37211 1.52868 1.74835 1.65793 1.10853 1.99359 1.25008
1.29892 1.60325 1.35005 1.49948 1.62867 1.74781 1.46635 1.68135 1.65737 1.75703
1.83552 1.59813 2.06581 1.86221 1.64665 1.96979 0.770472 0.740875 1.63374 1.50603
1.65782 1.80996 1.45389 1.35128 1.78346 1.17702 1.41137 1.53308 1.68088 1.68942
1.59042 1.17231 1.11555 1.43976 1.14203 1.3267 1.50114 1.12553 1.64252 1.70848
1.71855 1.7565 1.49894 1.53273 1.38356 1.60781 1.33143 1.33552 0.612733 0.671022
0.487028 1.75256 1.72007 1.72795 1.82204 1.40404 1.35774 0.409091 0.832588 0.767806
1.33928 1.59552 1.21146 1.34739 1.48822 1.8657 1.75475 2.09657 1.63865 1.62887
1.62424 1.89067 1.18117 1.87361 2.96869 2.35081 1.55617 1.76989 1.2538 1.67223
1.54958 1.72326 1.70766 1.41133 1.50212 1.22736 1.42662 1.66153 1.71752 1.84897
1.79786 1.58757 2.30937 2.27599 3.18837 1.57773 1.10591 1.68361 1.02056 1.32478
1.25571 2.35562 2.4529 2.3321 1.58144 1.24302 1.47372 1.18316 1.52224 1.36186
1.77555 1.68666 1.87094 0.568868 1.84156 0.774977 1.73741 0.610936 1.83139 1.83674
1.46131 1.46194 1.35769 1.49664 1.42497 2.43185 1.18307 0.951606 1.28674 1.3184
1.624 1.64284 0.410534 1.29479 1.11569 1.35882 1.2595 1.37856 1.40472 1.26712
1.47368 0.815926 1.13579 1.1979 1.91145 1.77243 1.84846 0.645734 1.30394 1.55674
1.60168 1.32558 1.10081 1.47811 0.924721 1.1912 1.69763 1.15824 1.74032 1.10249
1.53884 0.952878 1.32961 1.32961 1.69473 1.91844 1.62702 1.6132 2.01418 1.85013
0.368155 0.309952 1.49368 1.64725 1.39407 1.3999 1.13432 0.132605 0.151976 0.824976
1.68906 1.57832 1.42986 1.77544 1.7828 1.6081 1.69854 1.69854 1.2378 1.36532
1.09603 1.44012 1.1077 1.04662 1.08058 1.16136 1.48835 2.31586 1.8946 0.449172
0.892294 0.963331 1.45785 1.1614 1.35611 1.14121 1.10239 1.03306 1.35883 1.2782
1.5694 1.27424 1.59093 1.05124 0.759345 1.40953 1.58218 0.625356 1.15964 1.50122
1.29664 1.65902 0.832226 0.772305 0.471137 0.588512 0.802876 1.27033 1.28424 1.85365
1.80327 1.5615 1.79231 1.65842 1.78791 1.59417 1.43767 1.63756 1.88794 1.55832
2.34046 2.41483 1.32364 2.08656 1.90217 1.97645 1.52924 1.47869 2.15028 1.86339
1.73736 1.74142 1.93272 2.05448 2.00663 0.95645 0.889191 1.54956 1.50363 1.87956
1.23026 1.46078 1.3859 1.35403 1.57582 1.34481 2.41203 2.80643 2.42438 1.84214
2.36368 1.91316 1.54013 1.69385 1.85857 1.70978 1.8633 1.70108 1.53136 1.19685
1.36375 1.8235 1.67921 1.36735 1.64403 1.49379 1.52158 1.91732 1.91488 1.71771
1.56297 1.53608 1.62458 1.6043 1.56635 0.778897 1.75888 1.72294 1.53576 1.75289
1.57624 3.05183 2.02752 2.21736 1.58674 1.77391 0.93534 0.903842 1.54882 0.906911
1.54162 0.933939 1.13586 1.22914 1.45496 0.719075 1.58938 1.23872 1.96227 0.903116
1.1442 1.29883 0.915799 2.24179 2.39792 2.20886 1.70095 0.625965 0.593861 0.952063
0.3481 0.995208 1.07366 1.49816 1.55651 1.70302 1.60319 1.501 0.782594 1.81235
1.81235 1.78483 1.78483 1.70947 2.23308 1.84322 2.30141 2.1752 2.97059 2.23378
1.83845 1.29557 1.6643 1.08228 1.50737 1.52002 2.29641 0.983378 2.34046 1.6484
1.64505 1.59506 1.71521 0.619006 1.95063 1.67172 0.944285 1.40745 1.09754 1.40643
1.13862 1.4301 1.96503 1.83956 1.96636 1.59363 2.16352 2.23951 1.5438 1.54299
2.1892 1.28851 0.925904 1.3766 0.957506 2.91773 1.73298 2.24185 3.30808 1.11005
1.17736 1.03998 0.496445 1.12308 0.800404 0.790656 0.760838 0.787721 0.7572 1.03507
0.821187 1.00012 1.16913 1.36107 1.08275 1.08451 1.85074 1.63391 1.44863 0.278532
0.478439 1.16171 0.553359 2.96767 3.06279 1.74029 0.888638 0.4849 0.526514 0.584396
1.34175 0.889147 1.30396 1.2403 1.46292 0.967907 1.16988 1.00188 1.18961 1.1703
1.65966 1.78624 1.91752 1.73068 1.78817 1.30665 1.48392 1.61834 1.7865 1.67246
1.56819 1.47574 1.89751 1.83354 1.85132 1.19179 1.70774 1.38113 1.73581 1.52054
1.52054 1.67352 1.67352 0.569175 0.636259 1.43944 1.48715 1.82445 1.42797 1.42797
1.1055 1.01585 1.04629 0.909896 1.44747 1.53273 1.67504 1.5485 1.52644 1.52644
1.23361 1.16305 1.16311 1.21998 0.578648 1.91293 1.53152 1.98716 1.56165 1.43394
0.609639 0.622842 1.30091 2.28885 2.89609 1.40355 1.38339 1.23147 1.29399 1.30922