# vtk DataFile Version 2.0
sampleSurface
ASCII
DATASET POLYDATA
POINTS 28170 float
-1324.36 -1350.27 1.5 -1424.05 -1350.27 1.5 -1424.05 -1421.34 1.5 -1324.36 -1421.34
1.5 -1224.68 -1350.27 1.5 -1224.68 -1421.34 1.5 -1125 -1350.27 1.5
-1125 -1421.34 1.5 -1025.31 -1350.27 1.5 -1025.31 -1421.34 1.5 -925.631
-1350.27 1.5 -925.631 -1421.34 1.5 -825.947 -1350.27 1.5 -825.947 -1421.34
1.5 -726.264 -1350.27 1.5 -726.264 -1421.34 1.5 -626.581 -1350.27 1.5
-626.581 -1421.34 1.5 -526.897 -1350.27 1.5 -526.897 -1421.34 1.5 -427.214
-1350.27 1.5 -427.214 -1421.34 1.5 -327.531 -1350.27 1.5 -327.531 -1421.34
1.5 -227.847 -1350.27 1.5 -227.847 -1421.34 1.5 -128.164 -1350.27 1.5
-128.164 -1421.34 1.5 -28.4808 -1350.27 1.5 -28.4808 -1421.34 1.5 71.2025
-1350.27 1.5 71.2025 -1421.34 1.5 170.886 -1350.27 1.5 170.886 -1421.34
1.5 270.569 -1350.27 1.5 270.569 -1421.34 1.5 370.252 -1350.27 1.5
370.252 -1421.34 1.5 469.936 -1350.27 1.5 469.936 -1421.34 1.5 569.619
-1350.27 1.5 569.619 -1421.34 1.5 669.302 -1350.27 1.5 669.302 -1421.34
1.5 768.986 -1350.27 1.5 768.986 -1421.34 1.5 868.669 -1350.27 1.5
868.669 -1421.34 1.5 968.352 -1350.27 1.5 968.352 -1421.34 1.5 1068.04
-1350.27 1.5 1068.04 -1421.34 1.5 1167.72 -1350.27 1.5 1167.72 -1421.34
1.5 1267.4 -1350.27 1.5 1267.4 -1421.34 1.5 1367.09 -1350.27 1.5
1367.09 -1421.34 1.5 1466.77 -1350.27 1.5 1466.77 -1421.34 1.5 1566.45
-1350.27 1.5 1566.45 -1421.34 1.5 1666.14 -1350.27 1.5 1666.14 -1421.34
1.5 1765.82 -1350.27 1.5 1765.82 -1421.34 1.5 1865.5 -1350.27 1.5
1865.5 -1421.34 1.5 1965.19 -1350.27 1.5 1965.19 -1421.34 1.5 2064.87
-1350.27 1.5 2064.87 -1421.34 1.5 2164.55 -1350.27 1.5 2164.55 -1421.34
1.5 2264.24 -1350.27 1.5 2264.24 -1421.34 1.5 2363.92 -1350.27 1.5
2363.92 -1421.34 1.5 2463.6 -1350.27 1.5 2463.6 -1421.34 1.5 2563.29
-1350.27 1.5 2563.29 -1421.34 1.5 2662.97 -1350.27 1.5 2662.97 -1421.34
1.5 2762.65 -1350.27 1.5 2762.65 -1421.34 1.5 2862.34 -1350.27 1.5
2862.34 -1421.34 1.5 2962.02 -1350.27 1.5 2962.02 -1421.34 1.5 3061.7
-1350.27 1.5 3061.7 -1421.34 1.5 3161.39 -1350.27 1.5 3161.39 -1421.34
1.5 3261.07 -1350.27 1.5 3261.07 -1421.34 1.5 3360.75 -1350.27 1.5
3360.75 -1421.34 1.5 3460.44 -1350.27 1.5 3460.44 -1421.34 1.5 3560.12
-1421.34 1.5 3560.12 -1350.27 1.5 -1324.36 -1279.2 1.5 -1424.05 -1279.2
1.5 -1224.68 -1279.2 1.5 -1125 -1279.2 1.5 -1025.31 -1279.2 1.5
-925.631 -1279.2 1.5 -825.947 -1279.2 1.5 -726.264 -1279.2 1.5 -626.581
-1279.2 1.5 -526.897 -1279.2 1.5 -427.214 -1279.2 1.5 -327.531 -1279.2
1.5 -227.847 -1279.2 1.5 -128.164 -1279.2 1.5 -28.4808 -1279.2 1.5
71.2024 -1279.2 1.5 170.886 -1279.2 1.5 270.569 -1279.2 1.5 370.252
-1279.2 1.5 469.936 -1279.2 1.5 569.619 -1279.2 1.5 669.302 -1279.2
1.5 768.986 -1279.2 1.5 868.669 -1279.2 1.5 968.352 -1279.2 1.5
1068.04 -1279.2 1.5 1167.72 -1279.2 1.5 1267.4 -1279.2 1.5 1367.09
-1279.2 1.5 1466.77 -1279.2 1.5 1566.45 -1279.2 1.5 1666.14 -1279.2
1.5 1765.82 -1279.2 1.5 1865.5 -1279.2 1.5 1965.19 -1279.2 1.5
2064.87 -1279.2 1.5 2164.55 -1279.2 1.5 2264.24 -1279.2 1.5 2363.92
-1279.2 1.5 2463.6 -1279.2 1.5 2563.29 -1279.2 1.5 2662.97 -1279.2
1.5 2762.65 -1279.2 1.5 2862.34 -1279.2 1.5 2962.02 -1279.2 1.5
3061.7 -1279.2 1.5 3161.39 -1279.2 1.5 3261.07 -1279.2 1.5 3360.75
-1279.2 1.5 3460.44 -1279.2 1.5 3560.12 -1279.2 1.5 -1324.36 -1208.14
1.5 -1424.05 -1208.14 1.5 -1224.68 -1208.14 1.5 -1125 -1208.14 1.5
-1025.31 -1208.14 1.5 -925.631 -1208.14 1.5 -825.947 -1208.14 1.5 -726.264
-1208.14 1.5 -626.581 -1208.14 1.5 -526.897 -1208.14 1.5 -427.214 -1208.14
1.5 -327.531 -1208.14 1.5 -227.847 -1208.14 1.5 -128.164 -1208.14 1.5
-28.4809 -1208.14 1.5 71.2024 -1208.14 1.5 170.886 -1208.14 1.5 270.569
-1208.14 1.5 370.252 -1208.14 1.5 469.936 -1208.14 1.5 569.619 -1208.14
1.5 669.302 -1208.14 1.5 768.985 -1208.14 1.5 868.669 -1208.14 1.5
968.352 -1208.14 1.5 1068.04 -1208.14 1.5 1167.72 -1208.14 1.5 1267.4
-1208.14 1.5 1367.09 -1208.14 1.5 1466.77 -1208.14 1.5 1566.45 -1208.14
1.5 1666.14 -1208.14 1.5 1765.82 -1208.14 1.5 1865.5 -1208.14 1.5
1965.19 -1208.14 1.5 2064.87 -1208.14 1.5 2164.55 -1208.14 1.5 2264.24
-1208.14 1.5 2363.92 -1208.14 1.5 2463.6 -1208.14 1.5 2563.29 -1208.14
1.5 2662.97 -1208.14 1.5 2762.65 -1208.14 1.5 2862.34 -1208.14 1.5
2962.02 -1208.14 1.5 3061.7 -1208.14 1.5 3161.39 -1208.14 1.5 3261.07
-1208.14 1.5 3360.75 -1208.14 1.5 3460.44 -1208.14 1.5 3560.12 -1208.14
1.5 -1324.36 -1137.07 1.5 -1424.05 -1137.07 1.5 -1224.68 -1137.07 1.5
-1125 -1137.07 1.5 -1025.31 -1137.07 1.5 -925.631 -1137.07 1.5 -825.947
-1137.07 1.5 -726.264 -1137.07 1.5 -626.581 -1137.07 1.5 -526.897 -1137.07
1.5 -427.214 -1137.07 1.5 -327.531 -1137.07 1.5 -227.847 -1137.07 1.5
-128.164 -1137.07 1.5 -28.481 -1137.07 1.5 71.2023 -1137.07 1.5 170.886
-1137.07 1.5 270.569 -1137.07 1.5 370.252 -1137.07 1.5 469.936 -1137.07
1.5 569.619 -1137.07 1.5 669.302 -1137.07 1.5 768.985 -1137.07 1.5
868.669 -1137.07 1.5 968.352 -1137.07 1.5 1068.04 -1137.07 1.5 1167.72
-1137.07 1.5 1267.4 -1137.07 1.5 1367.09 -1137.07 1.5 1466.77 -1137.07
1.5 1566.45 -1137.07 1.5 1666.14 -1137.07 1.5 1765.82 -1137.07 1.5
1865.5 -1137.07 1.5 1965.19 -1137.07 1.5 2064.87 -1137.07 1.5 2164.55
-1137.07 1.5 2264.24 -1137.07 1.5 2363.92 -1137.07 1.5 2463.6 -1137.07
1.5 2563.29 -1137.07 1.5 2662.97 -1137.07 1.5 2762.65 -1137.07 1.5
2862.34 -1137.07 1.5 2962.02 -1137.07 1.5 3061.7 -1137.07 1.5 3161.39
-1137.07 1.5 3261.07 -1137.07 1.5 3360.75 -1137.07 1.5 3460.44 -1137.07
1.5 3560.12 -1137.07 1.5 -1324.36 -1066 1.5 -1424.05 -1066 1.5
-1224.68 -1066 1.5 -1125 -1066 1.5 -1025.31 -1066 1.5 -925.631
-1066 1.5 -825.947 -1066 1.5 -726.264 -1066 1.5 -626.581 -1066
1.5 -526.897 -1066 1.5 -427.214 -1066 1.5 -327.531 -1066 1.5
-227.848 -1066 1.5 -128.164 -1066 1.5 -28.4811 -1066 1.5 71.2022
-1066 1.5 170.885 -1066 1.5 270.569 -1066 1.5 370.252 -1066
1.5 469.935 -1066 1.5 569.619 -1066 1.5 669.302 -1066 1.5
768.985 -1066 1.5 868.669 -1066 1.5 968.352 -1066 1.5 1068.04
-1066 1.5 1167.72 -1066 1.5 1267.4 -1066 1.5 1367.08 -1066
1.5 1466.77 -1066 1.5 1566.45 -1066 1.5 1666.13 -1066 1.5
1765.82 -1066 1.5 1865.5 -1066 1.5 1965.19 -1066 1.5 2064.87
-1066 1.5 2164.55 -1066 1.5 2264.24 -1066 1.5 2363.92 -1066
1.5 2463.6 -1066 1.5 2563.29 -1066 1.5 2662.97 -1066 1.5
2762.65 -1066 1.5 2862.34 -1066 1.5 2962.02 -1066 1.5 3061.7
-1066 1.5 3161.39 -1066 1.5 3261.07 -1066 1.5 3360.75 -1066
1.5 3460.44 -1066 1.5 3560.12 -1066 1.5 -1324.36 -994.936 1.5
-1424.05 -994.936 1.5 -1224.68 -994.936 1.5 -1125 -994.936 1.5 -1025.31
-994.936 1.5 -925.631 -994.936 1.5 -825.947 -994.936 1.5 -726.264 -994.936
1.5 -626.581 -994.936 1.5 -526.897 -994.936 1.5 -427.214 -994.935 1.5
-327.531 -994.935 1.5 -227.848 -994.935 1.5 -128.164 -994.934 1.5 -28.4812
-994.934 1.5 71.202 -994.934 1.5 170.885 -994.935 1.5 270.569 -994.935
1.5 370.252 -994.935 1.5 469.935 -994.936 1.5 569.619 -994.936 1.5
669.302 -994.936 1.5 768.985 -994.936 1.5 868.669 -994.936 1.5 968.352
-994.936 1.5 1068.04 -994.936 1.5 1167.72 -994.936 1.5 1267.4 -994.936
1.5 1367.08 -994.936 1.5 1466.77 -994.936 1.5 1566.45 -994.936 1.5
1666.13 -994.936 1.5 1765.82 -994.936 1.5 1865.5 -994.936 1.5 1965.18
-994.936 1.5 2064.87 -994.936 1.5 2164.55 -994.936 1.5 2264.24 -994.936
1.5 2363.92 -994.936 1.5 2463.6 -994.936 1.5 2563.29 -994.936 1.5
2662.97 -994.936 1.5 2762.65 -994.936 1.5 2862.34 -994.936 1.5 2962.02
-994.936 1.5 3061.7 -994.936 1.5 3161.39 -994.936 1.5 3261.07 -994.936
1.5 3360.75 -994.936 1.5 3460.44 -994.936 1.5 3560.12 -994.936 1.5
-1324.36 -923.869 1.5 -1424.05 -923.869 1.5 -1224.68 -923.869 1.5 -1125
-923.869 1.5 -1025.31 -923.869 1.5 -925.631 -923.869 1.5 -825.947 -923.869
1.5 -875.789 -923.869 1.5 -726.264 -923.869 1.5 -776.106 -923.869 1.5
-626.581 -923.869 1.5 -676.422 -923.869 1.5 -526.897 -923.869 1.5 -576.739
-923.869 1.5 -427.214 -923.869 1.5 -477.056 -923.869 1.5 -327.531 -923.868
1.5 -377.372 -923.869 1.5 -227.848 -923.868 1.5 -277.689 -923.868 1.5
-128.164 -923.868 1.5 -178.006 -923.868 1.5 -28.4812 -923.868 1.5 -78.3229
-923.868 1.5 71.202 -923.868 1.5 21.3604 -923.868 1.5 170.885 -923.868
1.5 121.044 -923.868 1.5 270.569 -923.868 1.5 220.727 -923.868 1.5
370.252 -923.869 1.5 320.41 -923.869 1.5 469.935 -923.869 1.5 420.094
-923.869 1.5 569.619 -923.869 1.5 519.777 -923.869 1.5 669.302 -923.869
1.5 619.461 -923.869 1.5 768.985 -923.869 1.5 719.144 -923.869 1.5
868.669 -923.869 1.5 818.827 -923.869 1.5 968.352 -923.869 1.5 918.511
-923.869 1.5 1068.04 -923.869 1.5 1167.72 -923.869 1.5 1267.4 -923.869
1.5 1367.08 -923.869 1.5 1466.77 -923.869 1.5 1566.45 -923.869 1.5
1666.13 -923.869 1.5 1765.82 -923.869 1.5 1865.5 -923.869 1.5 1965.18
-923.869 1.5 2064.87 -923.869 1.5 2164.55 -923.869 1.5 2264.23 -923.869
1.5 2363.92 -923.869 1.5 2463.6 -923.869 1.5 2563.29 -923.869 1.5
2662.97 -923.869 1.5 2762.65 -923.869 1.5 2862.34 -923.869 1.5 2962.02
-923.869 1.5 3061.7 -923.869 1.5 3161.39 -923.869 1.5 3261.07 -923.869
1.5 3360.75 -923.869 1.5 3460.44 -923.869 1.5 3560.12 -923.869 1.5
-1324.36 -852.802 1.5 -1424.05 -852.802 1.5 -1224.68 -852.802 1.5 -1125
-852.802 1.5 -1025.31 -852.802 1.5 -925.631 -888.336 1.5 -925.631 -852.802
1.5 -875.789 -888.336 1.5 -776.106 -888.336 1.5 -801.027 -888.336 1.5
-825.947 -888.336 1.5 -676.422 -888.336 1.5 -701.343 -888.336 1.5 -726.264
-888.336 1.5 -576.739 -888.336 1.5 -601.66 -888.336 1.5 -626.581 -888.336
1.5 -477.056 -888.336 1.5 -501.977 -888.336 1.5 -526.898 -888.336 1.5
-377.373 -888.336 1.5 -402.293 -888.336 1.5 -427.214 -888.336 1.5 -277.689
-888.336 1.5 -302.61 -888.336 1.5 -327.531 -888.336 1.5 -178.006 -888.336
1.5 -202.927 -888.336 1.5 -227.848 -888.336 1.5 -78.3226 -888.336 1.5
-103.243 -888.336 1.5 -128.164 -888.336 1.5 21.3607 -888.336 1.5 -3.56012
-888.336 1.5 -28.4809 -888.336 1.5 121.044 -888.336 1.5 96.1232 -888.336
1.5 71.2024 -888.336 1.5 220.727 -888.336 1.5 195.807 -888.336 1.5
170.886 -888.336 1.5 320.411 -888.336 1.5 295.49 -888.336 1.5 270.569
-888.336 1.5 420.094 -888.336 1.5 395.173 -888.336 1.5 370.252 -888.336
1.5 519.777 -888.336 1.5 494.856 -888.336 1.5 469.936 -888.336 1.5
[...]
CELL_DATA 27336
FIELD attributes 2
k 1 27336 float
1.31343 0.494549 0.331532 0.284509 0.265229 0.256289 0.253145 0.252212 0.250704 0.248333 0.246244
0.245447 0.246244 0.24995 0.257102 0.266944 0.277677 0.287531 0.295048 0.299869 0.302751
0.304177 0.304947 0.305244 0.305408 0.305435 0.305384 0.305258 0.304976 0.304685 0.304324
0.303986 0.303699 0.303442 0.30323 0.303056 0.302889 0.302747 0.302642 0.302566 0.30251
0.30244 0.302376 0.302306 0.302246 0.302171 0.302103 0.302053 0.302048 0.302016 1.31345
0.49454 0.331533 0.284506 0.265213 0.256306 0.253135 0.252185 0.250678 0.248317 0.246233
0.245466 0.246271 0.249964 0.257156 0.267001 0.277693 0.287498 0.295014 0.299864 0.302775
0.304221 0.30502 0.305312 0.305478 0.305491 0.305427 0.305306 0.305044 0.304761 0.304415
0.304071 0.303754 0.303482 0.303254 0.303073 0.302926 0.302794 0.302677 0.30259 0.302525
0.302453 0.302386 0.302327 0.302276 0.302195 0.30213 0.30206 0.302048 0.302024 1.31342
0.494563 0.33153 0.28452 0.265252 0.256297 0.253116 0.252157 0.250674 0.248339 0.246255
0.245474 0.246294 0.24999 0.257187 0.267048 0.277712 0.287509 0.294996 0.299872 0.302828
0.304335 0.305174 0.305476 0.305617 0.30559 0.305446 0.305334 0.305103 0.304843 0.304525
0.304191 0.303843 0.303549 0.303317 0.30312 0.302954 0.302806 0.302688 0.302575 0.302485
0.302393 0.30233 0.302276 0.302235 0.302166 0.302114 0.302058 0.302062 0.302026 1.31346
0.494542 0.331531 0.284509 0.265147 0.256399 0.253115 0.252056 0.250566 0.248249 0.246206
0.245482 0.246393 0.250211 0.257383 0.267197 0.277802 0.287573 0.295064 0.299921 0.302889
0.304433 0.305309 0.305585 0.305729 0.305702 0.305556 0.305435 0.305193 0.304958 0.304571
0.304158 0.30378 0.303474 0.303228 0.303056 0.302925 0.302793 0.302668 0.302529 0.30239
0.302269 0.302202 0.302158 0.302125 0.302079 0.302063 0.30205 0.302049 0.30199 1.31342
0.494591 0.331527 0.284544 0.265302 0.256323 0.253073 0.252055 0.250564 0.248254 0.246253
0.24553 0.246452 0.250264 0.257392 0.267219 0.27783 0.287608 0.295152 0.299976 0.30294
0.304505 0.305447 0.30576 0.305901 0.30584 0.30561 0.305494 0.305269 0.305048 0.30465
0.304201 0.303779 0.303456 0.303238 0.303073 0.302902 0.302749 0.302626 0.302477 0.302325
0.302189 0.30209 0.302027 0.302012 0.302015 0.302016 0.302008 0.301986 0.301931 1.3133
0.494756 0.331287 0.284941 0.264602 0.256515 0.253266 0.251962 0.25032 0.247646 0.245858
0.24521 0.246518 0.250596 0.258003 0.267616 0.278243 0.287921 0.295498 0.300374 0.303304
0.304921 0.305809 0.305879 0.305979 0.306015 0.306008 0.305873 0.30566 0.305468 0.304964
0.304217 0.303655 0.303291 0.303022 0.302824 0.30268 0.302546 0.302405 0.302263 0.302149
0.30206 0.302009 0.301973 0.301957 0.301943 0.301934 0.301934 0.301935 0.301944 1.31362
0.494435 0.331622 0.284911 0.264759 0.257579 0.255985 0.25676 0.257009 0.255363 0.25237
0.250607 0.250827 0.25354 0.260059 0.269469 0.279608 0.288692 0.295239 0.299682 0.302405
0.304332 0.305711 0.306908 0.306305 0.306428 0.306275 0.306077 0.306047 0.305918 0.305307
0.304294 0.303535 0.303162 0.303037 0.303035 0.303042 0.303011 0.302903 0.302694 0.302443
0.302217 0.302062 0.301975 0.301927 0.301896 0.30187 0.301866 0.301865 0.301886 1.31395
0.493742 0.333055 0.282586 0.266281 0.149006 0.251631 0.304885 0.313328 0.316107 0.319507
0.321195 0.323219 0.329865 0.341874 0.358457 0.377387 0.396563 0.411327 0.420458 0.424703
0.426797 0.427897 0.417557 0.666595 0.393993 0.332579 0.319484 0.315767 0.314027 0.312197
0.309752 0.307252 0.305257 0.30408 0.303389 0.303043 0.302916 0.302856 0.302783 0.302641
0.302443 0.302265 0.302099 0.301968 0.301897 0.301873 0.301875 0.301887 0.301904 1.31381
0.493985 0.332435 0.283464 0.265644 0.16993 0.630735 0.637694 0.382678 0.326489 0.315126
0.313631 0.312712 0.310713 0.307954 0.305177 0.302888 0.301422 0.300622 0.300333 0.300287
0.300368 0.300659 0.30112 0.301564 0.30186 0.301963 0.301965 0.301938 0.301914 0.301907
0.301918 0.301923 1.31391 0.493845 0.332683 0.283251 0.26557 0.169957 0.625763 0.637335
0.38242 0.326297 0.315178 0.313905 0.313001 0.31079 0.307622 0.304671 0.302347 0.300983
0.300263 0.300026 0.300006 0.300098 0.300388 0.300853 0.301349 0.301716 0.301896 0.301945
0.301937 0.301905 0.30189 0.301897 0.30192 1.31402 0.493861 0.332644 0.283227 0.265527
0.169962 0.625678 0.637487 0.382653 0.326374 0.315327 0.314157 0.313241 0.310953 0.307583
0.304573 0.302236 0.300922 0.300258 0.300043 0.300053 0.300204 0.300574 0.301027 0.301476
0.301771 0.301897 0.301925 0.301918 0.301896 0.301889 0.301893 0.301914 1.31407 0.493858
0.332639 0.283222 0.265464 0.169975 0.625027 0.637077 0.382619 0.326311 0.315354 0.314246
0.313317 0.310977 0.307468 0.304409 0.30207 0.300781 0.300144 0.299942 0.299959 0.300141
0.300553 0.301021 0.301463 0.301753 0.301882 0.30191 0.301903 0.301882 0.301875 0.301888
0.301894 1.31409 0.493921 0.332614 0.283234 0.265381 0.16999 0.624122 0.636683 0.382773
0.326575 0.315528 0.314379 0.313402 0.310965 0.307382 0.304294 0.301945 0.300673 0.300058
0.299872 0.299899 0.300098 0.300517 0.300987 0.301421 0.30171 0.301837 0.301878 0.301878
0.301857 0.301846 0.301848 0.301892 1.31414 0.493937 0.332581 0.283228 0.265289 0.170014
0.621302 0.63289 0.380964 0.324963 0.314579 0.313681 0.312935 0.310755 0.307188 0.304101
0.301768 0.300521 0.299923 0.299751 0.299786 0.300002 0.300442 0.300933 0.301386 0.301679
0.301816 0.301859 0.301865 0.301857 0.301853 0.301862 0.301898 1.3142 0.493961 0.332558
0.283215 0.265176 0.170058 0.6139 0.64165 0.384592 0.328151 0.316954 0.315506 0.314211
0.311355 0.307575 0.304305 0.301847 0.300522 0.299879 0.299689 0.299726 0.299956 0.300395
0.300888 0.301353 0.301663 0.301804 0.301843 0.301853 0.30185 0.30185 0.301866 0.301901
1.31426 0.49397 0.332528 0.283173 0.265065 0.170105 0.657547 0.652649 0.388573 0.328519
0.316575 0.315249 0.314206 0.31148 0.307531 0.304148 0.301653 0.300339 0.299736 0.299573
0.299619 0.299858 0.300335 0.300856 0.30132 0.301628 0.301767 0.301816 0.301832 0.301824
0.301818 0.301827 0.301864 1.31431 0.493992 0.332498 0.283131 0.264971 0.170141 0.606038
0.564663 0.347737 0.304557 0.302866 0.305142 0.307647 0.307844 0.306082 0.303363 0.301528
0.300355 0.299745 0.29956 0.299604 0.299868 0.300322 0.300828 0.301294 0.301609 0.301755
0.301809 0.301829 0.301834 0.301842 0.30185 0.301863 1.31434 0.494022 0.332459 0.283106
0.264879 0.170178 0.740955 0.727341 0.419213 0.34887 0.329429 0.322038 0.318545 0.31449
0.309783 0.305821 0.302961 0.301325 0.30036 0.299886 0.299769 0.299913 0.300331 0.300825
0.30128 0.301592 0.301745 0.301801 0.301821 0.301815 0.301808 0.301813 0.301825 1.31432
0.494066 0.332431 0.283075 0.264826 0.170193 0.715573 0.654719 0.383735 0.316828 0.30016
0.296442 0.294825 0.29261 0.29148 0.29163 0.293026 0.295246 0.296708 0.297753 0.298578
0.299454 0.300292 0.300956 0.301414 0.301659 0.301772 0.301823 0.301844 0.30184 0.301826
0.301826 0.301842 1.31429 0.494104 0.332405 0.28307 0.264804 0.170183 0.306167 0.455633
0.288584 0.257517 0.259874 0.26888 0.278561 0.284614 0.288451 0.291272 0.293829 0.295848
0.297114 0.297967 0.298768 0.299612 0.300395 0.301015 0.301433 0.301665 0.301778 0.301814
0.301824 0.301828 0.301833 0.301831 0.301838 1.31428 0.494129 0.332407 0.28308 0.264804
0.170179 0.599493 0.53486 0.330174 0.289221 0.285177 0.288297 0.295571 0.300142 0.301925
0.302042 0.301439 0.30083 0.300389 0.300079 0.299952 0.30006 0.300439 0.300906 0.301344
0.301639 0.301779 0.301823 0.301842 0.30185 0.301853 0.301862 0.301884 1.31425 0.49412
0.332437 0.283125 0.264821 0.17016 0.349474 0.484709 0.312137 0.279299 0.281159 0.285598
0.290056 0.293298 0.295677 0.297162 0.298065 0.298701 0.299107 0.299318 0.299446 0.299722
0.300247 0.300817 0.301297 0.301599 0.301745 0.301803 0.301825 0.301829 0.301833 0.301843
0.301867 1.31431 0.494059 0.332456 0.283166 0.264871 0.170123 0.83445 0.761248 0.41046
0.332941 0.3127 0.309288 0.308978 0.308231 0.305886 0.303166 0.301495 0.300417 0.299865
0.299626 0.299611 0.299823 0.300297 0.300811 0.301275 0.301601 0.301753 0.301805 0.301828
0.301829 0.301824 0.301829 0.301849 1.31426 0.494053 0.332465 0.283235 0.264963 0.170072
0.741687 0.656225 0.392693 0.337314 0.325322 0.323225 0.320821 0.315676 0.31013 0.305651
0.302469 0.300668 0.299833 0.299558 0.299579 0.299812 0.30026 0.30076 0.301224 0.301547
0.301712 0.30178 0.301816 0.301824 0.301826 0.301827 0.30183 1.31427 0.494006 0.332513
0.283258 0.265077 0.169997 0.582502 0.615389 0.376602 0.325969 0.31663 0.316098 0.315512
0.312165 0.30752 0.303864 0.301325 0.30005 0.299553 0.299472 0.299549 0.299817 0.300291
0.300816 0.301294 0.301602 0.301744 0.301794 0.301812 0.301813 0.301814 0.301825 0.301866
1.31428 0.493948 0.332567 0.283224 0.265203 0.169953 0.6214 0.63368 0.381539 0.325326
0.313989 0.312931 0.312103 0.309787 0.306318 0.303312 0.301147 0.300074 0.299614 0.299544
0.299612 0.299865 0.300319 0.300818 0.30129 0.301602 0.301743 0.301793 0.301815 0.301814
0.301812 0.301818 0.301858 1.31425 0.493905 0.332612 0.283212 0.265304 0.169921 0.624486
0.634282 0.38189 0.326087 0.315371 0.314153 0.313136 0.310583 0.307007 0.3039 0.30158
0.300377 0.299813 0.299665 0.299711 0.299949 0.300396 0.300888 0.301349 0.301659 0.301781
0.301825 0.301835 0.301828 0.301825 0.301829 0.301877 1.31425 0.49386 0.332655 0.28319
0.265397 0.169903 0.625325 0.635365 0.38194 0.325786 0.314806 0.313698 0.312802 0.310495
0.306998 0.303977 0.3017 0.300492 0.299918 0.299757 0.299795 0.300015 0.300439 0.300905
0.301352 0.301661 0.301781 0.301828 0.301835 0.301824 0.301819 0.301824 0.301877 1.3142
0.493814 0.332671 0.283196 0.265475 0.169888 0.626379 0.636077 0.382178 0.32599 0.315097
0.313979 0.313055 0.310718 0.307245 0.304217 0.30191 0.30065 0.300032 0.299846 0.299872
0.300073 0.300492 0.300967 0.301421 0.301721 0.301845 0.301869 0.301868 0.30186 0.301861
0.301884 0.30189 1.31416 0.493818 0.332671 0.283205 0.265538 0.169875 0.626824 0.636606
0.382202 0.326017 0.31503 0.313861 0.312955 0.310694 0.307361 0.304368 0.302056 0.30077
0.300131 0.299937 0.299955 0.300119 0.300498 0.300946 0.301398 0.301702 0.301837 0.301872
0.301872 0.301861 0.30186 0.301868 0.301891 1.31398 0.49383 0.332695 0.283254 0.265578
0.169837 0.627025 0.636699 0.382119 0.326023 0.314941 0.313681 0.312786 0.310586 0.307438
0.304501 0.302206 0.300856 0.30015 0.299928 0.299918 0.300018 0.300325 0.300788 0.301293
0.301662 0.301846 0.301896 0.301893 0.301874 0.301868 0.301888 0.30192 1.31388 0.493973
0.33244 0.283474 0.265653 0.169964 0.627971 0.637253 0.382466 0.326288 0.314962 0.313483
0.312556 0.310546 0.307792 0.305011 0.302729 0.301281 0.300497 0.300222 0.300183 0.300268
0.300566 0.301038 0.301503 0.301797 0.301904 0.301905 0.301883 0.301873 0.301875 0.301882
0.301897 1.31399 0.493714 0.333067 0.282598 0.266281 0.149849 0.274254 0.36791 0.370229
0.370698 0.373701 0.376653 0.381036 0.390171 0.404778 0.42432 0.446694 0.469724 0.488558
0.500711 0.506906 0.509357 0.512181 0.659171 0.666269 0.393793 0.332379 0.319314 0.315624
0.313885 0.312055 0.309613 0.307114 0.305119 0.303959 0.303272 0.302934 0.302828 0.302778
0.302701 0.302553 0.302356 0.302198 0.302069 0.301946 0.301862 0.301813 0.301799 0.301799
0.301832 1.31363 0.494438 0.331623 0.284922 0.264749 0.257605 0.256101 0.25686 0.25717
0.255656 0.252559 0.250958 0.251078 0.253827 0.260056 0.269557 0.279488 0.288539 0.295073
0.299558 0.30236 0.304359 0.305751 0.30694 0.306297 0.306394 0.306217 0.305991 0.305943
0.305793 0.305154 0.30415 0.303405 0.303039 0.30291 0.302908 0.302927 0.302916 0.302833
0.302637 0.302378 0.302139 0.301989 0.301926 0.301892 0.301854 0.301828 0.301822 0.301831
0.301851 1.31329 0.494767 0.331269 0.284972 0.264579 0.25653 0.253262 0.251995 0.250276
0.24778 0.245808 0.245305 0.246517 0.250721 0.257987 0.26771 0.278294 0.28798 0.295573
0.300495 0.303433 0.305013 0.305872 0.305914 0.305942 0.305967 0.305959 0.305801 0.305551
0.305348 0.304826 0.304088 0.303534 0.303166 0.302906 0.302721 0.302579 0.302451 0.302329
0.302205 0.302094 0.302006 0.301955 0.30193 0.301909 0.301908 0.301912 0.301916 0.301896
0.301864 1.31341 0.49459 0.331523 0.284554 0.265288 0.25634 0.253083 0.252057 0.250574
0.24829 0.246283 0.245579 0.246497 0.250318 0.257446 0.267241 0.277913 0.287636 0.295204
0.300075 0.303029 0.304577 0.305488 0.305771 0.305886 0.305814 0.305558 0.305431 0.305199
0.304941 0.30453 0.30409 0.303665 0.303337 0.303115 0.302934 0.302795 0.30267 0.302532
0.30238 0.302241 0.302122 0.302037 0.301985 0.301973 0.301966 0.301959 0.301959 0.301955
0.301914 1.31343 0.494542 0.331528 0.284519 0.265138 0.256414 0.253121 0.252049 0.25058
0.248287 0.246232 0.245522 0.246443 0.250248 0.25745 0.267227 0.277871 0.28761 0.29514
0.300008 0.302966 0.304476 0.305333 0.305597 0.305719 0.305674 0.3055 0.305373 0.305112
0.304845 0.30446 0.304045 0.303663 0.303356 0.303112 0.302939 0.302815 0.30269 0.302557
0.302431 0.30232 0.30221 0.302142 0.302108 0.302072 0.302036 0.302021 0.301992 0.301991
0.301952 1.31339 0.494561 0.331529 0.284528 0.265244 0.256311 0.253124 0.252154 0.250683
0.248372 0.246297 0.245508 0.246335 0.250029 0.257254 0.267071 0.277769 0.287542 0.295075
0.299952 0.302902 0.304379 0.305194 0.305478 0.30561 0.305576 0.305411 0.305284 0.305021
0.304749 0.304413 0.304066 0.303715 0.30343 0.3032 0.303012 0.30287 0.302736 0.302595
0.30245 0.302356 0.302301 0.302267 0.302217 0.302171 0.302122 0.302077 0.302028 0.302029
0.302003 1.31342 0.494538 0.331531 0.284511 0.265207 0.256317 0.25315 0.252178 0.250695
0.248358 0.24626 0.245485 0.24631 0.250017 0.257242 0.267025 0.277738 0.28753 0.29509
0.299953 0.302858 0.304283 0.305058 0.30533 0.305485 0.305488 0.305386 0.305236 0.30494
0.304653 0.304296 0.303955 0.303658 0.303379 0.303159 0.302972 0.302818 0.302702 0.302614
0.302524 0.302435 0.30235 0.302282 0.302234 0.302185 0.302124 0.302077 0.302034 0.302039
0.302019 1.3134 0.494546 0.331531 0.284514 0.265229 0.256296 0.253156 0.252208 0.25072
0.24837 0.246272 0.245473 0.246293 0.249985 0.25716 0.266972 0.277741 0.287577 0.295118
0.299942 0.302803 0.304206 0.304965 0.305251 0.305415 0.305428 0.305337 0.305173 0.304873
0.304582 0.304216 0.303895 0.303598 0.303338 0.303128 0.302969 0.302832 0.302718 0.302625
0.302522 0.302421 0.302359 0.302313 0.302248 0.302181 0.302117 0.302062 0.302022 0.302031
0.302019 0.217093 0.162589 0.0788856 0.346947 0.304522 0.0783464 0.0347696 0.0871973 0.28779
0.406954 0.353563 0.0448104 0.0247928 0.117418 0.03816 0.264077 0.08049 0.0390945 0.01575
0.0922956 1.2589 1.32631 1.26698 0.620061 0.206484 0.291058 0.576854 0.253577 0.833136
0.212336 0.062044 0.361024 0.0296488 0.373144 0.139651 0.131591 0.29324 0.131412 0.192568
0.0593732 0.173386 0.249593 0.318539 0.212619 0.0844498 0.180437 0.101609 1.23816 0.279101
0.0640761 0.5926 0.915064 0.53517 0.937838 0.0333635 0.167306 0.527156 0.142262 0.924719
0.422157 0.975888 0.194844 0.227582 0.406588 0.52025 0.166721 0.207057 0.307174 0.388896
0.298746 0.709268 0.293491 0.740042 0.407428 1.20965 1.4211 1.44567 0.765425 1.27972
0.798998 0.792006 0.459673 1.10882 0.497409 0.364508 0.623105 0.740639 1.34307 0.667475
0.696806 0.784144 0.408563 0.52978 0.121558 0.164352 0.653252 0.188026 1.10477 0.0546064
0.634671 0.590258 1.14296 1.51732 0.662844 0.724497 1.58488 0.0142668 0.0676876 0.160312
0.872754 0.416399 1.04863 0.350117 0.263178 0.195195 0.19523 1.79718 0.301703 0.755515
1.01371 1.71603 0.180189 0.224811 0.241902 0.0756008 0.226888 0.356717 0.356717 0.564851
0.104205 0.360779 0.030397 0.113509 0.0686915 0.208442 0.0938992 0.225511 0.28695 0.372232
0.302075 0.809238 0.60051 1.11518 0.13443 0.62323 1.0889 0.87497 1.02633 0.0526348
0.135661 0.0559623 0.0844966 0.385681 0.145557 0.755877 1.07761 1.07068 1.35897 0.173843
0.115805 0.191415 0.058521 0.146509 0.038031 0.249721 0.0430547 1.29461 0.63029 1.04717
1.29265 0.173524 0.0830283 0.516978 0.51667 0.625988 0.814662 0.561458 0.807144 0.0186827
0.405245 0.247428 0.0823128 0.104523 0.207348 0.309575 0.164049 0.242639 0.128604 0.121694
0.228076 0.21232 0.673207 0.597763 1.13667 0.543812 0.198367 0.0985159 0.230425 0.148414
0.376513 0.778079 0.436646 0.589638 0.127713 0.11222 0.117825 0.133647 0.338724 0.145312
0.303892 0.0959913 0.0199749 0.0838781 0.0463605 0.530043 0.197285 0.381443 0.363822 0.477775
0.78049 0.311977 0.431301 0.222732 0.23214 0.077978 0.354733 0.188223 0.107688 0.165799
0.13496 0.237119 0.0546743 0.24187 0.204759 0.604104 1.33315 1.33932 0.587123 0.224727
0.346048 0.465292 0.0251427 0.0784307 1.11358 1.17483 1.5957 0.290261 0.80894 0.281584
0.438015 0.158578 0.601083 1.33793 0.133419 1.02134 1.24662 0.686113 0.459331 0.833636
1.79643 1.47067 1.69198 0.0880865 0.481967 1.19699 0.602813 1.45304 0.790527 1.34425
0.731291 0.800378 0.678548 0.518997 0.644526 1.03821 0.133922 0.0776709 1.54298 1.35299
1.59263 1.11961 1.40341 0.524353 0.600431 1.21617 0.814764 1.11279 0.251343 0.0422468
1.19788 0.0849319 0.39471 0.474459 0.262265 0.977107 0.19116 0.249967 0.654551 0.10699
0.341337 0.316725 0.346723 1.03015 0.308624 1.35716 1.02413 1.34193 0.241747 0.0571478
0.414424 0.0858898 0.481071 0.0621237 0.610358 1.15957 0.12638 0.114884 0.276553 0.77542
0.374087 0.180672 0.736564 0.454064 0.520259 0.177392 1.60006 0.54373 1.41041 1.0157
1.08378 0.568041 0.218292 1.33707 0.338966 1.29941 0.488653 0.630305 0.878704 0.358708
0.336276 0.0824075 0.0489596 0.246049 0.262066 0.0579595 0.186791 0.36802 0.507787 0.0783595
0.536141 0.225983 0.273148 0.101713 0.0692859 0.466143 0.102244 0.141464 0.799806 0.108387
0.133228 0.225906 0.236418 0.236431 0.65934 0.806566 0.835717 0.813282 0.365063 0.8152
0.702163 0.767963 0.476249 0.443048 0.481489 0.320447 0.521695 0.417883 0.352333 0.267076
0.517879 0.250728 0.337041 0.400408 0.211315 0.200053 0.174675 0.401001 0.0175291 0.0322458
0.160679 0.123525 0.0695883 0.137953 0.283823 0.229952 0.0416983 0.224439 0.121812 0.327175
1.13859 0.540452 0.370699 1.20501 0.365353 0.327624 0.182089 1.04156 0.208211 0.665651
0.0425613 0.0357767 0.0756383 0.0758975 0.171555 0.0697367 0.0823609 0.272242 0.195245 0.147441
0.403533 0.11306 0.535163 0.243386 0.625756 1.09865 1.08565 0.54402 1.2214 0.697953
0.0724196 1.29855 0.636384 0.337326 1.1113 0.179729 0.867977 0.523289 0.494216 1.08953
0.774185 0.70694 0.634248 0.722515 0.862842 0.737758 0.239376 0.298861 0.307714 0.276384
0.167011 0.126029 0.0716591 0.214618 0.0444678 0.203847 0.0609284 0.218176 0.125528 0.487698
0.43 0.402282 0.429904 0.187272 0.193861 0.664662 0.537478 0.654832 0.537698 0.14914
0.395123 0.36926 0.349089 0.367482 1.08331 0.430021 0.624168 0.567667 1.04788 1.01311
0.753552 1.17797 0.944592 0.878928 0.394674 0.912168 0.19145 0.183784 0.608195 1.24344
1.36567 0.890878 1.4221 0.388258 0.353571 1.23948 1.77399 1.74341 1.10538 0.532161
0.429684 1.32712 0.933038 0.521361 1.18172 1.39888 1.57313 1.53468 1.51859 1.27567
0.741024 0.727353 0.196342 1.25608 0.355346 1.03383 1.02086 0.102271 0.467559 0.231765
0.591272 0.647396 0.744942 1.30215 0.951944 1.43564 1.49906 1.43399 1.42854 1.47316
1.28895 0.261148 1.08687 0.723733 0.766889 0.889551 0.240749 1.33778 0.270219 0.341756
0.215464 0.197926 0.29867 0.0690658 0.459233 0.565044 1.18289 0.223255 0.286029 0.339289
0.885216 0.729311 0.390782 1.1308 0.399398 0.390769 0.366431 0.358035 0.404001 0.0408752
0.27567 1.24288 0.638475 0.691398 0.27952 0.639722 0.846752 0.136919 0.526721 0.924207
0.698618 0.301568 0.999313 0.666786 0.130478 0.225977 0.298225 0.113801 0.557925 0.327518
0.182385 0.829498 0.123161 0.534259 0.282032 0.362975 0.429619 1.06224 0.116558 0.393612
0.425646 0.205254 1.20117 0.686936 0.553511 0.322837 0.852553 0.0422324 0.04159 0.0822399
1.58195 1.03857 1.66825 0.555885 1.44812 0.616715 1.3406 1.06601 0.0867232 0.163593
0.127781 0.176946 0.283629 0.567974 0.556372 0.156014 0.31001 0.25994 0.154884 0.366544
0.612529 1.1105 1.18967 0.309889 0.207282 0.297298 0.511102 0.665849 1.43075 0.939285
1.30854 1.08299 0.602019 0.55941 1.17109 0.661675 0.509507 0.486668 0.28233 0.591706
0.434257 0.264702 0.255162 0.0979214 0.388082 1.80129 1.66163 0.843918 1.59596 0.420046
1.08108 0.45822 0.477345 0.145549 1.1447 0.533588 0.242904 0.3575 1.33488 1.31082