# vtk DataFile Version 2.0
sampleSurface
ASCII
DATASET POLYDATA
POINTS 9738 float
-1324.36 -1350.27 10 -1424.05 -1350.27 10 -1424.05 -1421.34 10 -1324.36 -1421.34
10 -1224.68 -1350.27 10 -1224.68 -1421.34 10 -1125 -1350.27 10
-1125 -1421.34 10 -1025.31 -1350.27 10 -1025.31 -1421.34 10 -925.631
-1350.27 10 -925.631 -1421.34 10 -825.947 -1350.27 10 -825.947 -1421.34
10 -726.264 -1350.27 10 -726.264 -1421.34 10 -626.581 -1350.27 10
-626.581 -1421.34 10 -526.897 -1350.27 10 -526.897 -1421.34 10 -427.214
-1350.27 10 -427.214 -1421.34 10 -327.531 -1350.27 10 -327.531 -1421.34
10 -227.847 -1350.27 10 -227.847 -1421.34 10 -128.164 -1350.27 10
-128.164 -1421.34 10 -28.4808 -1350.27 10 -28.4808 -1421.34 10 71.2025
-1350.27 10 71.2025 -1421.34 10 170.886 -1350.27 10 170.886 -1421.34
10 270.569 -1350.27 10 270.569 -1421.34 10 370.252 -1350.27 10
370.252 -1421.34 10 469.936 -1350.27 10 469.936 -1421.34 10 569.619
-1350.27 10 569.619 -1421.34 10 669.302 -1350.27 10 669.302 -1421.34
10 768.986 -1350.27 10 768.986 -1421.34 10 868.669 -1350.27 10
868.669 -1421.34 10 968.352 -1350.27 10 968.352 -1421.34 10 1068.04
-1350.27 10 1068.04 -1421.34 10 1167.72 -1350.27 10 1167.72 -1421.34
10 1267.4 -1350.27 10 1267.4 -1421.34 10 1367.09 -1350.27 10
1367.09 -1421.34 10 1466.77 -1350.27 10 1466.77 -1421.34 10 1566.45
-1350.27 10 1566.45 -1421.34 10 1666.14 -1350.27 10 1666.14 -1421.34
10 1765.82 -1350.27 10 1765.82 -1421.34 10 1865.5 -1350.27 10
1865.5 -1421.34 10 1965.19 -1350.27 10 1965.19 -1421.34 10 2064.87
-1350.27 10 2064.87 -1421.34 10 2164.55 -1350.27 10 2164.55 -1421.34
10 2264.24 -1350.27 10 2264.24 -1421.34 10 2363.92 -1350.27 10
2363.92 -1421.34 10 2463.6 -1350.27 10 2463.6 -1421.34 10 2563.29
-1350.27 10 2563.29 -1421.34 10 2662.97 -1350.27 10 2662.97 -1421.34
10 2762.65 -1350.27 10 2762.65 -1421.34 10 2862.34 -1350.27 10
2862.34 -1421.34 10 2962.02 -1350.27 10 2962.02 -1421.34 10 3061.7
-1350.27 10 3061.7 -1421.34 10 3161.39 -1350.27 10 3161.39 -1421.34
10 3261.07 -1350.27 10 3261.07 -1421.34 10 3360.75 -1350.27 10
3360.75 -1421.34 10 3460.44 -1350.27 10 3460.44 -1421.34 10 3560.12
-1421.34 10 3560.12 -1350.27 10 -1324.36 -1279.2 10 -1424.05 -1279.2
10 -1224.68 -1279.2 10 -1125 -1279.2 10 -1025.31 -1279.2 10
-925.631 -1279.2 10 -825.947 -1279.2 10 -726.264 -1279.2 10 -626.581
-1279.2 10 -526.897 -1279.2 10 -427.214 -1279.2 10 -327.531 -1279.2
10 -227.847 -1279.2 10 -128.164 -1279.2 10 -28.4808 -1279.2 10
71.2025 -1279.2 10 170.886 -1279.2 10 270.569 -1279.2 10 370.252
-1279.2 10 469.936 -1279.2 10 569.619 -1279.2 10 669.302 -1279.2
10 768.986 -1279.2 10 868.669 -1279.2 10 968.352 -1279.2 10
1068.04 -1279.2 10 1167.72 -1279.2 10 1267.4 -1279.2 10 1367.09
-1279.2 10 1466.77 -1279.2 10 1566.45 -1279.2 10 1666.14 -1279.2
10 1765.82 -1279.2 10 1865.5 -1279.2 10 1965.19 -1279.2 10
2064.87 -1279.2 10 2164.55 -1279.2 10 2264.24 -1279.2 10 2363.92
-1279.2 10 2463.6 -1279.2 10 2563.29 -1279.2 10 2662.97 -1279.2
10 2762.65 -1279.2 10 2862.34 -1279.2 10 2962.02 -1279.2 10
3061.7 -1279.2 10 3161.39 -1279.2 10 3261.07 -1279.2 10 3360.75
-1279.2 10 3460.44 -1279.2 10 3560.12 -1279.2 10 -1324.36 -1208.14
10 -1424.05 -1208.14 10 -1224.68 -1208.14 10 -1125 -1208.14 10
-1025.31 -1208.14 10 -925.631 -1208.14 10 -825.947 -1208.14 10 -726.264
-1208.14 10 -626.581 -1208.14 10 -526.897 -1208.14 10 -427.214 -1208.14
10 -327.531 -1208.14 10 -227.847 -1208.14 10 -128.164 -1208.14 10
-28.4809 -1208.14 10 71.2024 -1208.14 10 170.886 -1208.14 10 270.569
-1208.14 10 370.252 -1208.14 10 469.936 -1208.14 10 569.619 -1208.14
10 669.302 -1208.14 10 768.985 -1208.14 10 868.669 -1208.14 10
968.352 -1208.14 10 1068.04 -1208.14 10 1167.72 -1208.14 10 1267.4
-1208.14 10 1367.09 -1208.14 10 1466.77 -1208.14 10 1566.45 -1208.14
10 1666.14 -1208.14 10 1765.82 -1208.14 10 1865.5 -1208.14 10
1965.19 -1208.14 10 2064.87 -1208.14 10 2164.55 -1208.14 10 2264.24
-1208.14 10 2363.92 -1208.14 10 2463.6 -1208.14 10 2563.29 -1208.14
10 2662.97 -1208.14 10 2762.65 -1208.14 10 2862.34 -1208.14 10
2962.02 -1208.14 10 3061.7 -1208.14 10 3161.39 -1208.14 10 3261.07
-1208.14 10 3360.75 -1208.14 10 3460.44 -1208.14 10 3560.12 -1208.14
10 -1324.36 -1137.07 10 -1424.05 -1137.07 10 -1224.68 -1137.07 10
-1125 -1137.07 10 -1025.31 -1137.07 10 -925.631 -1137.07 10 -825.947
-1137.07 10 -726.264 -1137.07 10 -626.581 -1137.07 10 -526.897 -1137.07
10 -427.214 -1137.07 10 -327.531 -1137.07 10 -227.847 -1137.07 10
-128.164 -1137.07 10 -28.4809 -1137.07 10 71.2023 -1137.07 10 170.886
-1137.07 10 270.569 -1137.07 10 370.252 -1137.07 10 469.936 -1137.07
10 569.619 -1137.07 10 669.302 -1137.07 10 768.985 -1137.07 10
868.669 -1137.07 10 968.352 -1137.07 10 1068.04 -1137.07 10 1167.72
-1137.07 10 1267.4 -1137.07 10 1367.09 -1137.07 10 1466.77 -1137.07
10 1566.45 -1137.07 10 1666.14 -1137.07 10 1765.82 -1137.07 10
1865.5 -1137.07 10 1965.19 -1137.07 10 2064.87 -1137.07 10 2164.55
-1137.07 10 2264.24 -1137.07 10 2363.92 -1137.07 10 2463.6 -1137.07
10 2563.29 -1137.07 10 2662.97 -1137.07 10 2762.65 -1137.07 10
2862.34 -1137.07 10 2962.02 -1137.07 10 3061.7 -1137.07 10 3161.39
-1137.07 10 3261.07 -1137.07 10 3360.75 -1137.07 10 3460.44 -1137.07
10 3560.12 -1137.07 10 -1324.36 -1066 10 -1424.05 -1066 10
-1224.68 -1066 10 -1125 -1066 10 -1025.31 -1066 10 -925.631
-1066 10 -825.947 -1066 10 -726.264 -1066 10 -626.581 -1066
10 -526.897 -1066 10 -427.214 -1066 10 -327.531 -1066 10
-227.847 -1066 10 -128.164 -1066 10 -28.481 -1066 10 71.2022
-1066 10 170.885 -1066 10 270.569 -1066 10 370.252 -1066
10 469.935 -1066 10 569.619 -1066 10 669.302 -1066 10
768.985 -1066 10 868.669 -1066 10 968.352 -1066 10 1068.04
-1066 10 1167.72 -1066 10 1267.4 -1066 10 1367.08 -1066
10 1466.77 -1066 10 1566.45 -1066 10 1666.13 -1066 10
1765.82 -1066 10 1865.5 -1066 10 1965.19 -1066 10 2064.87
-1066 10 2164.55 -1066 10 2264.24 -1066 10 2363.92 -1066
10 2463.6 -1066 10 2563.29 -1066 10 2662.97 -1066 10
2762.65 -1066 10 2862.34 -1066 10 2962.02 -1066 10 3061.7
-1066 10 3161.39 -1066 10 3261.07 -1066 10 3360.75 -1066
10 3460.44 -1066 10 3560.12 -1066 10 -1324.36 -994.936 10
-1424.05 -994.936 10 -1224.68 -994.936 10 -1125 -994.936 10 -1025.31
-994.936 10 -925.631 -994.936 10 -825.947 -994.936 10 -726.264 -994.936
10 -626.581 -994.936 10 -526.897 -994.935 10 -427.214 -994.935 10
-327.531 -994.935 10 -227.848 -994.934 10 -128.164 -994.934 10 -28.4812
-994.934 10 71.202 -994.934 10 170.885 -994.934 10 270.569 -994.935
10 370.252 -994.935 10 469.935 -994.935 10 569.619 -994.936 10
669.302 -994.936 10 768.985 -994.936 10 868.669 -994.936 10 968.352
-994.936 10 1068.04 -994.936 10 1167.72 -994.936 10 1267.4 -994.936
10 1367.08 -994.936 10 1466.77 -994.936 10 1566.45 -994.936 10
1666.13 -994.936 10 1765.82 -994.936 10 1865.5 -994.936 10 1965.18
-994.936 10 2064.87 -994.936 10 2164.55 -994.936 10 2264.24 -994.936
10 2363.92 -994.936 10 2463.6 -994.936 10 2563.29 -994.936 10
2662.97 -994.936 10 2762.65 -994.936 10 2862.34 -994.936 10 2962.02
-994.936 10 3061.7 -994.936 10 3161.39 -994.936 10 3261.07 -994.936
10 3360.75 -994.936 10 3460.44 -994.936 10 3560.12 -994.936 10
-1324.36 -923.869 10 -1424.05 -923.869 10 -1224.68 -923.869 10 -1125
-923.869 10 -1025.31 -923.869 10 -925.631 -923.869 10 -825.947 -923.869
10 -875.789 -923.869 10 -726.264 -923.869 10 -776.106 -923.869 10
-626.581 -923.869 10 -676.422 -923.869 10 -526.897 -923.869 10 -576.739
-923.869 10 -427.214 -923.868 10 -477.056 -923.868 10 -327.531 -923.867
10 -377.372 -923.868 10 -227.848 -923.867 10 -277.689 -923.867 10
-128.164 -923.866 10 -178.006 -923.866 10 -28.4814 -923.866 10 -78.323
-923.866 10 71.2018 -923.866 10 21.3601 -923.866 10 170.885 -923.867
10 121.043 -923.867 10 270.568 -923.867 10 220.727 -923.867 10
370.252 -923.868 10 320.41 -923.868 10 469.935 -923.869 10 420.094
-923.868 10 569.619 -923.869 10 519.777 -923.869 10 669.302 -923.869
10 619.46 -923.869 10 768.985 -923.869 10 719.144 -923.869 10
868.669 -923.869 10 818.827 -923.869 10 968.352 -923.869 10 1068.04
-923.869 10 1167.72 -923.869 10 1267.4 -923.869 10 1367.08 -923.869
10 1466.77 -923.869 10 1566.45 -923.869 10 1666.13 -923.869 10
1765.82 -923.869 10 1865.5 -923.869 10 1965.18 -923.869 10 2064.87
-923.869 10 2164.55 -923.869 10 2264.23 -923.869 10 2363.92 -923.869
10 2463.6 -923.869 10 2563.29 -923.869 10 2662.97 -923.869 10
2762.65 -923.869 10 2862.34 -923.869 10 2962.02 -923.869 10 3061.7
-923.869 10 3161.39 -923.869 10 3261.07 -923.869 10 3360.75 -923.869
10 3460.44 -923.869 10 3560.12 -923.869 10 -1324.36 -852.802 10
-1424.05 -852.802 10 -1224.68 -852.802 10 -1125 -852.802 10 -1025.31
-852.802 10 -925.631 -888.336 10 -925.631 -852.802 10 -875.789 -888.336
10 -776.106 -888.336 10 -825.947 -888.336 10 -676.422 -888.336 10
-726.264 -888.336 10 -576.739 -888.336 10 -626.581 -888.336 10 -477.056
-888.335 10 -526.897 -888.336 10 -377.372 -888.335 10 -427.214 -888.335
10 -277.689 -888.335 10 -327.531 -888.335 10 -178.006 -888.335 10
-227.848 -888.335 10 -78.3227 -888.335 10 -128.164 -888.335 10 21.3605
-888.335 10 -28.4811 -888.335 10 121.044 -888.335 10 71.2021 -888.335
10 220.727 -888.335 10 170.885 -888.335 10 320.41 -888.335 10
270.569 -888.335 10 420.094 -888.335 10 370.252 -888.335 10 519.777
-888.336 10 469.935 -888.336 10 619.461 -888.336 10 569.619 -888.336
10 719.144 -888.336 10 669.302 -888.336 10 818.827 -888.336 10
768.986 -888.336 10 968.352 -852.802 10 918.511 -852.802 10 868.669
-852.802 10 868.669 -888.336 10 1068.03 -852.802 10 1167.72 -852.802
10 1267.4 -852.802 10 1367.08 -852.802 10 1466.77 -852.802 10
1566.45 -852.802 10 1666.13 -852.802 10 1765.82 -852.802 10 1865.5
-852.802 10 1965.18 -852.802 10 2064.87 -852.802 10 2164.55 -852.802
10 2264.23 -852.802 10 2363.92 -852.802 10 2463.6 -852.802 10
2563.29 -852.802 10 2662.97 -852.802 10 2762.65 -852.802 10 2862.34
-852.802 10 2962.02 -852.802 10 3061.7 -852.802 10 3161.39 -852.802
10 3261.07 -852.802 10 3360.75 -852.802 10 3460.44 -852.802 10
3560.12 -852.802 10 -1324.36 -781.735 10 -1424.05 -781.735 10 -1224.68
[...]
CELL_DATA 9156
FIELD attributes 2
k 1 9156 float
2.2412 1.51316 1.34449 1.25971 1.212 1.18406 1.16659 1.15177 1.12829 1.10264 1.08096
1.06215 1.04863 1.0447 1.05035 1.07563 1.121 1.17739 1.23882 1.29584 1.3414
1.37371 1.39449 1.40628 1.41275 1.4161 1.41853 1.41912 1.4186 1.41705 1.41512
1.4129 1.41072 1.40873 1.40699 1.40547 1.40422 1.4032 1.4024 1.40172 1.40116
1.40063 1.40025 1.39987 1.39946 1.39896 1.39861 1.39826 1.39801 1.3978 2.24121
1.51318 1.34449 1.25976 1.21197 1.18405 1.16655 1.15184 1.12832 1.10239 1.08061
1.06193 1.04865 1.04468 1.05035 1.07601 1.12144 1.17745 1.23853 1.29563 1.34148
1.374 1.39483 1.40661 1.41315 1.4164 1.41876 1.41926 1.41871 1.41738 1.4157
1.41357 1.41131 1.40913 1.40725 1.40571 1.4045 1.40348 1.40266 1.40199 1.40146
1.40095 1.40051 1.40005 1.39965 1.3992 1.39886 1.39837 1.39806 1.3978 2.24117
1.51322 1.34451 1.25972 1.21199 1.18414 1.16655 1.15171 1.12807 1.10227 1.08071
1.06194 1.04877 1.04492 1.05058 1.0763 1.12177 1.17765 1.23846 1.29536 1.34136
1.37429 1.39547 1.40749 1.41405 1.41722 1.41928 1.41948 1.41886 1.41767 1.41624
1.41423 1.41181 1.40942 1.40747 1.40595 1.40478 1.40381 1.40298 1.40213 1.40132
1.4006 1.40016 1.39981 1.39952 1.3991 1.39873 1.3983 1.398 1.39775 2.24119
1.51326 1.34453 1.25999 1.21182 1.18401 1.16647 1.15207 1.12811 1.1015 1.07947
1.06106 1.04863 1.0454 1.05142 1.07741 1.12253 1.17805 1.23859 1.2956 1.34169
1.37476 1.39603 1.40819 1.41484 1.41787 1.41973 1.41974 1.41921 1.41846 1.41711
1.41492 1.4122 1.40938 1.40708 1.40545 1.40441 1.40358 1.40277 1.40186 1.40094
1.40013 1.39958 1.39912 1.3988 1.39843 1.39815 1.39795 1.39783 1.39763 2.24109
1.51348 1.34458 1.25974 1.21195 1.18429 1.1665 1.15184 1.12755 1.10107 1.07935
1.06147 1.04891 1.04565 1.05165 1.07764 1.12282 1.17834 1.23892 1.29612 1.34216
1.37539 1.39665 1.40895 1.41545 1.41846 1.4203 1.42029 1.41992 1.41914 1.41751
1.41478 1.41181 1.40907 1.40685 1.40524 1.40418 1.40342 1.40262 1.40173 1.40092
1.40002 1.39915 1.39844 1.39806 1.39788 1.3978 1.39771 1.39752 1.39735 2.24086
1.5141 1.34442 1.26096 1.21116 1.18361 1.16614 1.15307 1.1283 1.09974 1.07608
1.0586 1.04753 1.04546 1.05249 1.07964 1.1242 1.17908 1.23921 1.29643 1.34269
1.3762 1.39742 1.41016 1.41675 1.41978 1.42112 1.42098 1.42076 1.42044 1.41951
1.41695 1.41309 1.4095 1.40666 1.40462 1.40334 1.40243 1.40161 1.40069 1.39979
1.39892 1.3983 1.39786 1.39764 1.39752 1.39741 1.3973 1.39722 1.39718 2.24124
1.51334 1.34516 1.26023 1.21098 1.18177 1.16524 1.15347 1.12923 1.10094 1.07767
1.06161 1.05156 1.04984 1.05723 1.08547 1.12998 1.1839 1.2423 1.29745 1.34236
1.37528 1.39747 1.41065 1.41752 1.42051 1.42169 1.42143 1.42074 1.4202 1.41908
1.41637 1.41204 1.40771 1.40477 1.40332 1.40301 1.4031 1.4032 1.40305 1.40198
1.40033 1.3991 1.39829 1.39775 1.39744 1.39714 1.39695 1.39683 1.39679 2.24179
1.51083 1.35186 1.25196 1.21689 1.11995 1.08077 1.10814 1.11216 1.10737 1.11091
1.1164 1.12065 1.12748 1.14452 1.17833 1.22845 1.28882 1.3522 1.40525 1.44136
1.46223 1.47272 1.35979 1.41626 1.45547 1.46073 1.45498 1.44273 1.42655 1.41003
1.39842 1.39475 1.39557 1.39832 1.40051 1.40199 1.40289 1.40304 1.40262 1.40208
1.40141 1.40046 1.39935 1.39833 1.39756 1.39706 1.39691 1.39684 1.39684 2.24156
1.51177 1.34814 1.25855 1.20963 1.15237 1.43657 1.38684 1.43273 1.44234 1.4385
1.4285 1.40819 1.38729 1.37587 1.37576 1.37973 1.38579 1.3887 1.38921 1.38869
1.38769 1.38749 1.38815 1.39093 1.39421 1.39625 1.3972 1.39736 1.39724 1.39711
1.39699 1.39695 2.24171 1.51134 1.34902 1.25834 1.21003 1.15011 1.43311 1.38739
1.43206 1.44063 1.43665 1.42657 1.40655 1.38605 1.37432 1.3738 1.37715 1.38317
1.38631 1.38698 1.38662 1.38609 1.38597 1.38645 1.38896 1.39268 1.39529 1.39671
1.39722 1.39724 1.39706 1.39693 1.39695 2.2417 1.51162 1.34886 1.25842 1.21027
1.15105 1.43374 1.38864 1.43342 1.44156 1.43746 1.42723 1.40745 1.38691 1.3745
1.37342 1.37627 1.3821 1.38541 1.38634 1.38629 1.3862 1.38625 1.38697 1.38969
1.39306 1.39542 1.39667 1.3971 1.39711 1.39692 1.39681 1.39685 2.24169 1.51182
1.34889 1.25863 1.21025 1.15125 1.43389 1.38975 1.43387 1.44161 1.43745 1.42733
1.4079 1.38743 1.37462 1.37309 1.37559 1.38122 1.38457 1.38549 1.38546 1.38543
1.38553 1.38645 1.38952 1.39289 1.39519 1.39643 1.39694 1.39704 1.39696 1.39686
1.39685 2.24161 1.51213 1.34887 1.25896 1.21032 1.15167 1.43333 1.38961 1.43416
1.44221 1.43813 1.42809 1.4086 1.38783 1.37448 1.3725 1.3748 1.3803 1.38372
1.38482 1.38496 1.38503 1.38522 1.38622 1.38928 1.39259 1.39494 1.39625 1.39678
1.39685 1.39668 1.39657 1.39661 2.2416 1.51238 1.34883 1.25927 1.21034 1.15193
1.43108 1.38593 1.42938 1.43772 1.4336 1.42395 1.40576 1.3861 1.37334 1.3715
1.37379 1.37929 1.38275 1.38394 1.38414 1.38426 1.38452 1.38566 1.38895 1.39236
1.39477 1.39611 1.39666 1.39673 1.39661 1.39655 1.39662 2.2416 1.51257 1.34883
1.25966 1.21029 1.15237 1.42359 1.3986 1.44091 1.44756 1.44311 1.43255 1.41241
1.39083 1.37626 1.37305 1.37472 1.37936 1.38249 1.38358 1.38384 1.38396 1.38421
1.38535 1.38868 1.39214 1.39457 1.39593 1.39654 1.39669 1.39662 1.39659 1.39666
2.24164 1.51264 1.34884 1.26002 1.2102 1.15287 1.48694 1.40728 1.45402 1.45741
1.45081 1.43629 1.4148 1.39272 1.37737 1.37309 1.37431 1.37842 1.38158 1.38274
1.38301 1.38322 1.38362 1.38489 1.38834 1.39184 1.39429 1.39569 1.39634 1.39651
1.39651 1.39651 1.39656 2.24166 1.51274 1.34882 1.26036 1.21021 1.15348 1.41103
1.28842 1.31293 1.32509 1.32931 1.33579 1.33951 1.34177 1.3459 1.35412 1.36512
1.37423 1.37958 1.38185 1.38268 1.38302 1.38345 1.38471 1.3881 1.39166 1.39418
1.39563 1.39634 1.39659 1.39664 1.39665 1.39666 2.24167 1.51281 1.34881 1.26065
1.21014 1.15411 1.47295 1.39634 1.47715 1.5008 1.49557 1.47325 1.44208 1.40852
1.38108 1.37161 1.37418 1.38058 1.38362 1.38401 1.38368 1.38345 1.38366 1.38471
1.38781 1.39144 1.39399 1.39553 1.39634 1.39665 1.39667 1.39659 1.39652 2.24163
1.5129 1.34881 1.26088 1.21015 1.15447 1.46287 1.23796 1.33721 1.39138 1.40201
1.39631 1.36581 1.32024 1.29127 1.28791 1.30145 1.32884 1.34992 1.36287 1.37013
1.37494 1.37947 1.38418 1.38854 1.39201 1.3944 1.39577 1.39641 1.39664 1.3967
1.39666 1.39662 2.24159 1.51299 1.3488 1.261 1.21018 1.15464 0.677072 0.943947
0.99808 1.05022 1.09997 1.13843 1.16434 1.18726 1.21589 1.25051 1.28801 1.3221
1.34708 1.36221 1.37038 1.37547 1.37999 1.38453 1.38871 1.39206 1.39436 1.39564
1.39628 1.39658 1.39662 1.39657 1.39657 2.24155 1.51307 1.34883 1.261 1.21017
1.15488 1.25929 1.14617 1.19239 1.1894 1.17886 1.1813 1.20177 1.23494 1.27038
1.30658 1.33834 1.36096 1.37408 1.38008 1.3824 1.38315 1.38385 1.38531 1.38828
1.39162 1.39406 1.39554 1.3963 1.39664 1.39676 1.39685 1.39685 2.24154 1.51304
1.34885 1.26089 1.21008 1.15507 0.77105 1.04757 1.09195 1.17137 1.21444 1.23368
1.24341 1.25385 1.27234 1.29808 1.3256 1.3493 1.36546 1.3745 1.37861 1.38035
1.38175 1.38426 1.38794 1.39136 1.39388 1.39539 1.39617 1.39656 1.39671 1.39676
1.39676 2.24161 1.51289 1.34879 1.26068 1.21003 1.1551 1.50037 1.47388 1.5139
1.48756 1.43432 1.40116 1.37254 1.34958 1.34518 1.35004 1.36212 1.37254 1.3788
1.38153 1.38248 1.38293 1.38341 1.3846 1.38777 1.39133 1.39389 1.39545 1.39628
1.39667 1.39678 1.39674 1.39668 2.24157 1.51286 1.34878 1.26043 1.21005 1.15503
1.52044 1.37468 1.4312 1.44403 1.4417 1.43771 1.42638 1.4038 1.38543 1.37757
1.37737 1.37967 1.38201 1.38277 1.38292 1.38303 1.38326 1.38433 1.38762 1.39125
1.39386 1.3954 1.39618 1.39653 1.39667 1.39669 1.39664 2.24159 1.51277 1.34879
1.26005 1.21015 1.15455 1.38484 1.3499 1.39955 1.42115 1.42833 1.42825 1.41953
1.39702 1.3789 1.37224 1.37267 1.3762 1.37998 1.38172 1.38234 1.38268 1.38316
1.38466 1.38826 1.39172 1.39418 1.39554 1.39616 1.39638 1.39644 1.3965 1.39659
2.24165 1.51247 1.34882 1.25963 1.2103 1.15404 1.43404 1.38741 1.43166 1.43974
1.43553 1.42485 1.40457 1.38341 1.36988 1.3679 1.37031 1.37629 1.38045 1.38223
1.38282 1.38311 1.38351 1.38489 1.38842 1.39184 1.39424 1.39558 1.39621 1.39641
1.39643 1.39644 1.3965 2.24167 1.51226 1.34885 1.25924 1.21029 1.15354 1.44019
1.38994 1.43107 1.43931 1.43541 1.42607 1.40718 1.38628 1.37268 1.37044 1.37264
1.37819 1.38187 1.38324 1.38357 1.38374 1.38404 1.3853 1.38874 1.39214 1.39455
1.39589 1.39646 1.39657 1.39649 1.39645 1.39652 2.24174 1.51196 1.34888 1.25892
1.21035 1.15312 1.43969 1.38914 1.4326 1.44009 1.43587 1.42548 1.4057 1.38502
1.3721 1.37055 1.37311 1.37898 1.38265 1.38396 1.38423 1.38434 1.38456 1.38565
1.38886 1.39221 1.39458 1.39595 1.39654 1.39666 1.39658 1.39654 1.39656 2.24178
1.5117 1.34889 1.2586 1.21025 1.15262 1.43982 1.38975 1.43274 1.44024 1.43599
1.42576 1.40623 1.38581 1.37318 1.37181 1.37444 1.38028 1.38376 1.38478 1.38484
1.38485 1.38496 1.38598 1.38919 1.39257 1.39489 1.39614 1.39667 1.39677 1.39673
1.3967 1.39675 2.24178 1.51153 1.34885 1.25839 1.21032 1.15239 1.43881 1.38858
1.43251 1.44036 1.43615 1.42579 1.40594 1.38542 1.37318 1.37223 1.37521 1.38119
1.38461 1.38563 1.38567 1.38563 1.38569 1.38645 1.38927 1.39266 1.39501 1.39628
1.39677 1.39683 1.39673 1.39669 1.39674 2.24174 1.51132 1.349 1.25832 1.21003
1.15177 1.43776 1.3875 1.43164 1.43984 1.43571 1.4254 1.40531 1.38484 1.37319
1.37274 1.37617 1.3823 1.38554 1.38626 1.38597 1.3855 1.38538 1.38589 1.38858
1.39236 1.395 1.39641 1.39693 1.39695 1.39679 1.3967 1.39675 2.24158 1.51177
1.34811 1.25852 1.20967 1.15035 1.43745 1.38689 1.43245 1.44185 1.43793 1.42784
1.4074 1.38648 1.37504 1.37494 1.37894 1.38504 1.38798 1.3885 1.38801 1.38703
1.38686 1.38759 1.39054 1.39392 1.39596 1.39684 1.39703 1.39693 1.39685 1.39678
1.3968 2.24183 1.51072 1.35185 1.25192 1.21682 1.123 1.13014 1.16059 1.15721
1.1569 1.16319 1.17101 1.17664 1.18557 1.20471 1.24023 1.29026 1.35048 1.41344
1.46773 1.50464 1.5243 1.5316 1.36016 1.41659 1.45552 1.4604 1.45452 1.44208
1.42581 1.40922 1.39759 1.39394 1.39478 1.39757 1.39978 1.40131 1.40227 1.40245
1.40209 1.40149 1.40085 1.40003 1.39917 1.39827 1.39753 1.39691 1.39658 1.39646
1.39646 2.24123 1.51338 1.3451 1.26028 1.21089 1.18167 1.16527 1.1533 1.12925
1.10072 1.07778 1.0616 1.05173 1.0499 1.05744 1.08574 1.13035 1.18434 1.24315
1.29852 1.34367 1.37651 1.3986 1.41137 1.41791 1.42059 1.42155 1.42114 1.42023
1.4196 1.41841 1.41566 1.41129 1.40694 1.40401 1.40264 1.40237 1.40247 1.40261
1.40248 1.40144 1.3996 1.39838 1.39779 1.39751 1.39721 1.39692 1.39679 1.39673
1.39664 2.24083 1.51416 1.34436 1.26096 1.2111 1.18354 1.16615 1.15291 1.12846
1.09942 1.07613 1.0584 1.04762 1.04546 1.0526 1.07984 1.12455 1.1796 1.24002
1.29728 1.34355 1.37704 1.39831 1.41079 1.41719 1.42 1.42112 1.42075 1.42031
1.41987 1.41882 1.41623 1.41241 1.40869 1.40585 1.40392 1.40268 1.40179 1.40106
1.40028 1.39944 1.3986 1.39792 1.3974 1.39715 1.39712 1.39716 1.39718 1.39709
1.39692 2.24108 1.51348 1.34454 1.25973 1.21188 1.18425 1.1665 1.15174 1.12753
1.10088 1.07944 1.06131 1.04901 1.04577 1.05182 1.07794 1.12317 1.17885 1.23953
1.29681 1.34285 1.37607 1.39733 1.40943 1.41578 1.41866 1.42035 1.4202 1.41959
1.4187 1.41694 1.41423 1.41119 1.40837 1.40614 1.40456 1.40359 1.40282 1.40204
1.40121 1.40039 1.39955 1.39878 1.39815 1.39776 1.39755 1.39747 1.39739 1.39729
1.39717 2.24118 1.51325 1.34449 1.25997 1.21174 1.18396 1.16645 1.15198 1.12814
1.10132 1.07944 1.06108 1.04873 1.04548 1.05159 1.07772 1.1229 1.17851 1.23917
1.29624 1.34233 1.37541 1.39666 1.40865 1.41512 1.41802 1.41973 1.41962 1.41892
1.41803 1.4166 1.41432 1.41152 1.40873 1.4065 1.40486 1.40373 1.4029 1.40213
1.4013 1.40046 1.39966 1.39907 1.39867 1.39839 1.39813 1.39798 1.39775 1.39754
1.39737 2.24116 1.5132 1.34448 1.25968 1.21192 1.18411 1.16653 1.15164 1.12806
1.10212 1.0807 1.06199 1.04888 1.04501 1.05074 1.07663 1.12212 1.17802 1.23892
1.29598 1.34202 1.37488 1.39596 1.40787 1.41433 1.41741 1.41939 1.41948 1.41866
1.41733 1.41568 1.41353 1.41112 1.4088 1.4069 1.40539 1.40416 1.40307 1.40213
1.4013 1.40068 1.40018 1.39976 1.39937 1.39908 1.39876 1.39846 1.39803 1.39777
1.39759 2.2412 1.51315 1.34445 1.25974 1.2119 1.18399 1.16654 1.15178 1.12826
1.10233 1.08066 1.06189 1.04878 1.04489 1.05065 1.07635 1.12168 1.17771 1.23888
1.29611 1.34206 1.37463 1.3954 1.40707 1.41357 1.41676 1.41893 1.41921 1.41841
1.41683 1.41503 1.41291 1.41069 1.40853 1.40672 1.40523 1.40402 1.40297 1.40207
1.40127 1.40065 1.40018 1.39989 1.39957 1.39921 1.39882 1.39845 1.39804 1.39785
1.39767 2.2412 1.51312 1.34446 1.25968 1.21192 1.18401 1.16658 1.15168 1.12824
1.1026 1.081 1.06206 1.04877 1.04493 1.05057 1.07579 1.12129 1.17782 1.23926
1.29626 1.3419 1.3743 1.39505 1.40672 1.41319 1.4164 1.41858 1.4189 1.41811
1.41645 1.41461 1.41245 1.41016 1.40807 1.40633 1.40493 1.40384 1.40292 1.40212
1.40139 1.40082 1.40036 1.39995 1.39953 1.39918 1.39882 1.39839 1.39801 1.39788
1.39771 1.13749 0.363522 1.20187 0.891927 1.14103 0.923069 1.08556 1.02208 1.11653
0.70766 1.08383 0.911542 0.86823 1.29056 0.287678 0.495216 0.266458 1.07743 0.823931
0.753041 1.07764 0.560025 0.280349 1.17581 0.903245 1.3284 1.05009 1.40032 1.83073
0.836779 1.04247 0.458354 1.10777 1.12574 1.0166 0.3175 0.92885 0.390132 0.0820865
0.326198 0.134666 0.638132 0.571052 0.599501 0.713183 0.463162 0.960917 0.907488 1.23178
1.08895 1.64665 1.43944 1.5877 1.1402 1.19863 1.09771 0.911478 1.18087 1.22065
1.18568 1.2701 0.705977 0.327972 0.654741 0.143543 0.979286 0.990185 0.906442 2.21253
0.966257 1.54483 1.01701 1.47469 0.354866 1.00132 0.646007 0.997509 1.16752 0.724919
0.964401 1.32471 0.883851 1.45011 0.952861 1.26298 1.05821 1.18442 1.12657 0.824392
1.0414 0.883719 1.11437 0.99872 0.947608 1.04462 1.06171 0.773034 0.358629 0.234011
0.290438 0.331285 0.555546 0.724109 1.49517 0.307767 0.3846 1.01792 0.91103 1.04407
1.16839 1.23893 0.982846 0.897085 1.57169 0.955195 0.703548 0.184302 0.663244 1.01632
1.62042 0.641868 0.139567 0.265686 1.47996 0.867964 0.314495 1.03475 0.949334 0.680655
0.180496 0.347974 0.395342 1.07989 0.252412 1.11273 0.99797 1.65058 1.32631 1.13864
1.01274 0.52561 1.06251 0.581441 0.252939 0.708765 0.713039 0.534931 0.180645 1.19629
0.740731 1.12238 0.77326 0.75585 0.256844 1.13884 1.29798 0.970746 1.17294 1.53935
1.05247 0.503292 1.30762 0.326513 0.415473 0.509445 0.603766 0.685306 0.729873 0.53714
0.522761 0.662593 0.343395 0.802579 0.859822 1.03213 1.01894 1.00306 1.16441 1.37753
1.20417 1.1047 1.04131 1.44841 1.55748 1.80939 2.30763 2.03134 1.84775 2.21074
1.11512 1.11345 1.09881 1.51483 1.049 1.12878 1.09375 1.08457 1.17813 1.02672
1.0906 1.02161 0.962086 1.33648 1.13895 1.14171 1.27617 0.954119 0.963238 0.999069
0.954649 1.55374 1.00283 1.01669 1.29617 0.474017 1.05505 1.0032 1.15338 1.14442
1.2687 1.47473 0.949683 1.08192 1.50597 0.937758 0.995491 1.43571 1.35728 1.67948
1.59262 1.97111 1.60444 1.33511 1.40799 1.19426 1.06102 1.11695 1.07943 1.21608
1.70021 2.37188 2.04386 1.89846 1.25767 1.23898 1.16724 1.04434 1.03266 1.06358
1.04178 1.18567 1.08641 1.07122 1.10852 0.867814 1.20255 0.896006 1.12101 1.14789
0.983516 1.2419 0.927596 0.81538 1.43078 1.26099 0.903021 0.799427 1.07706 1.04127
0.933042 1.05634 1.05577 0.987891 0.934569 0.958777 0.863047 1.49757 1.27567 1.73161
1.31149 1.19156 1.64416 1.07856 1.28106 1.00933 1.52392 0.90478 0.634326 0.642093
0.829449 0.976519 1.37189 0.999451 1.51414 1.08656 1.40376 1.0505 1.49768 1.34386
1.27614 1.22585 1.37015 1.26663 1.08768 1.17144 1.11784 0.57045 0.62742 1.03744
0.343573 1.20477 2.17268 1.2413 1.13397 0.772113 1.05447 0.758654 1.10015 1.26451
1.26804 1.20303 0.688629 0.479448 0.370739 0.720639 0.429942 0.507334 0.47227 0.823239
1.0647 1.17107 1.08362 0.749652 0.577902 0.423133 0.931724 1.25336 1.72715 1.53474
0.997536 0.85499 0.782892 0.994163 1.12261 1.05215 1.06095 1.07897 1.42721 1.16558
1.01085 1.17648 1.40219 1.18295 1.2869 1.20888 1.23365 1.02877 1.1823 1.22032
1.02104 0.89203 0.962169 0.911836 0.995277 0.893733 0.828544 0.909628 0.944245 0.809246
0.846379 0.783774 0.793461 1.14067 1.15663 1.18203 1.04047 1.03015 0.908358 1.08154
1.0984 0.832903 0.844985 1.02158 0.935769 1.00111 0.979166 0.956898 0.999297 1.04595
0.870914 0.852985 0.876097 2.24028 1.49249 1.45987 2.22167 1.13652 1.16776 1.06407
1.06494 1.10126 1.08417 1.06581 1.08434 1.17447 1.17557 1.0272 0.965521 0.882687
1.70727 0.838865 1.265 1.35956 0.947846 1.01571 1.23321 1.36188 0.89511 1.12674
0.938128 1.09138 1.05492 0.935473 1.14852 1.4767 0.948838 0.892158 1.36489 1.47113
1.1398 1.2308 1.18163 1.1447 1.11935 1.2717 1.09245 1.08678 0.594715 0.365532
0.39705 0.488348 0.51649 0.487916 0.101722 0.27255 0.128586 1.23725 1.14216 1.08146
1.14504 0.355691 0.282934 0.655608 0.647244 0.517844 1.19981 1.19062 1.14107 1.12279
1.21046 1.29866 1.01821 1.30352 1.12916 1.41146 1.39663 1.14291 0.231355 0.234252
0.168644 0.261958 0.169865 0.251119 0.191935 0.243601 0.902837 0.84952 0.72082 0.501687
1.16401 0.367407 0.451888 0.453609 0.441191 0.421137 0.297655 0.215263 0.175241 0.657875
0.681549 0.918571 0.714427 0.701218 0.19621 0.0767787 0.167284 0.0804766 0.148069 0.0738515
0.219249 0.300481 0.54732 0.198416 0.0729614 0.0673605 0.526733 0.316274 0.316274 0.419036
0.124971 0.395945 0.519268 0.366939 0.48278 0.455548 0.287762 0.546128 0.494839 0.528438
0.720455 0.717126 0.923084 0.50583 0.794235 1.19977 1.13992 1.04921 1.17676 1.09972
1.08331 1.50117 1.7362 1.49137 1.77459 1.60998 1.82871 1.50652 1.4059 1.38662
1.32801 1.53309 1.37279 1.39207 1.59955 1.38917 1.20935 1.17972 0.942731 0.778348
0.852219 0.665223 0.900219 0.886532 0.815212 0.38649 0.616546 0.465039 0.346924 0.677183
0.291832 0.193335 0.266006 0.385559 0.551675 0.155636 0.48195 1.04028 0.46542 0.501407
1.07009 0.656043 0.566422 0.164035 0.756255 0.587373 0.570427 1.00542 0.932439 0.704982
0.42754 0.702249 1.93842 1.48903 2.07519 1.46384 1.47423 1.99836 1.85446 0.577129
0.107581 0.235366 0.881115 0.591749 3.10197 1.15076 0.046534 0.799798 0.547384 0.88287
0.787369 0.782847 0.65829 0.914446 0.650778 0.693451 0.637913 0.580955 0.754141 0.734426
1.10194 1.25303 0.895532 0.827475 1.08259 0.826918 0.710075 0.826159 0.625792 0.606909
0.741156 0.800907 0.382772 0.403804 0.778855 0.838647 0.733358 0.485703 1.0531 0.966083
0.52688 1.12586 0.965986 0.817701 1.03499 0.827146 0.531903 0.446355 0.65687 0.848345
0.822567 0.438028 0.459846 0.38806 0.464883 0.473637 0.379848 0.418842 0.502838 0.414377
0.490554 0.290112 0.28061 0.536562 0.392426 0.400833 0.152055 0.165848 0.379152 0.324398
0.302029 0.254093 0.275475 0.400978 0.388405 0.155225 0.18683 0.31291 0.547201 0.547201
0.524275 0.196101 0.391635 0.407431 0.816799 0.224083 0.437195 0.72932 0.073103 0.279712
0.476205 0.11323 1.13572 1.14853 1.60103 1.41717 1.34565 1.37312 1.49644 1.17131
1.08932 0.249272 0.19862 0.376932 0.779641 0.79396 0.462521 1.39113 1.13677 0.998887
0.682234 1.17676 0.817198 0.411027 1.01075 0.309324 0.845706 0.252838 0.0987086 1.01002
0.972978 0.30619 0.222487 0.395932 0.593562 0.64997 0.722407 0.74301 0.3752 0.397321
0.979984 0.367048 0.505476 0.615649 0.704158 0.438741 0.468428 0.697388 0.401339 0.512579
0.136063 0.344002 0.340885 0.0639022 0.141173 0.277247 0.205205 0.0483556 0.0649145 0.0649145
0.45024 0.553592 0.137473 0.13227 0.684168 1.40175 1.0211 0.922147 0.758969 0.947104
0.796227 0.490454 0.128781 0.781672 0.882776 0.882776 0.790337 0.132131 0.64385 0.281862
0.621995 0.373899 0.572076 0.3382 0.714802 0.351601 0.155484 0.992637 0.582058 0.255728
0.393587 0.338503 0.367967 0.339116 0.285206 1.09234 1.03466 1.16951 0.888022 0.245647
1.0908 1.03274 0.898288 0.942604 0.747795 0.832022 0.63083 1.01529 1.17318 1.39113
0.915435 1.02651 0.667806 0.993584 0.891381 0.805502 0.77843 0.596458 0.649929 0.599993
0.234348 0.499342 0.487722 0.68244 0.490009 0.818017 0.535816 0.65313 0.560856 0.627327
0.485098 0.55495 0.470896 0.583383 0.118324 0.207842 0.719745 0.113147 0.164741 0.173059
0.0760678 0.356028 0.27559 0.342666 0.0820204 0.101128 0.0871907 0.0727154 0.0723649 0.791301
0.757229 0.210017 0.415953 0.278337 0.612534 1.01353 0.719155 0.733697 1.00344 0.557656
0.433138 0.526861 0.922084 0.854469 1.18612 0.716333 1.0774 1.01821 0.952899 1.04236
0.736291 1.182 1.07401 0.999419 1.08978 0.783081 1.0067 1.18945 0.639495 0.763412