# vtk DataFile Version 2.0
sampleSurface
ASCII
DATASET POLYDATA
POINTS 28187 float
-1324.23 -1350.14 1.5 -1423.91 -1350.14 1.5 -1423.91 -1421.2 1.5 -1324.23 -1421.2
1.5 -1224.56 -1350.14 1.5 -1224.56 -1421.2 1.5 -1124.89 -1350.14 1.5
-1124.89 -1421.2 1.5 -1025.21 -1350.14 1.5 -1025.21 -1421.2 1.5 -925.54
-1350.14 1.5 -925.54 -1421.2 1.5 -825.867 -1350.14 1.5 -825.867 -1421.2
1.5 -726.193 -1350.14 1.5 -726.193 -1421.2 1.5 -626.52 -1350.14 1.5
-626.52 -1421.2 1.5 -526.846 -1350.14 1.5 -526.846 -1421.2 1.5 -427.173
-1350.14 1.5 -427.173 -1421.2 1.5 -327.499 -1350.14 1.5 -327.499 -1421.2
1.5 -227.826 -1350.14 1.5 -227.826 -1421.2 1.5 -128.152 -1350.14 1.5
-128.152 -1421.2 1.5 -28.4785 -1350.14 1.5 -28.4785 -1421.2 1.5 71.195
-1350.14 1.5 71.195 -1421.2 1.5 170.869 -1350.14 1.5 170.869 -1421.2
1.5 270.542 -1350.14 1.5 270.542 -1421.2 1.5 370.216 -1350.14 1.5
370.216 -1421.2 1.5 469.889 -1350.14 1.5 469.889 -1421.2 1.5 569.563
-1350.14 1.5 569.563 -1421.2 1.5 669.237 -1350.14 1.5 669.237 -1421.2
1.5 768.91 -1350.14 1.5 768.91 -1421.2 1.5 868.584 -1350.14 1.5
868.584 -1421.2 1.5 968.257 -1350.14 1.5 968.257 -1421.2 1.5 1067.93
-1350.14 1.5 1067.93 -1421.2 1.5 1167.6 -1350.14 1.5 1167.6 -1421.2
1.5 1267.28 -1350.14 1.5 1267.28 -1421.2 1.5 1366.95 -1350.14 1.5
1366.95 -1421.2 1.5 1466.63 -1350.14 1.5 1466.63 -1421.2 1.5 1566.3
-1350.14 1.5 1566.3 -1421.2 1.5 1665.97 -1350.14 1.5 1665.97 -1421.2
1.5 1765.65 -1350.14 1.5 1765.65 -1421.2 1.5 1865.32 -1350.14 1.5
1865.32 -1421.2 1.5 1964.99 -1350.14 1.5 1964.99 -1421.2 1.5 2064.67
-1350.14 1.5 2064.67 -1421.2 1.5 2164.34 -1350.14 1.5 2164.34 -1421.2
1.5 2264.01 -1350.14 1.5 2264.01 -1421.2 1.5 2363.69 -1350.14 1.5
2363.69 -1421.2 1.5 2463.36 -1350.14 1.5 2463.36 -1421.2 1.5 2563.03
-1350.14 1.5 2563.03 -1421.2 1.5 2662.71 -1350.14 1.5 2662.71 -1421.2
1.5 2762.38 -1350.14 1.5 2762.38 -1421.2 1.5 2862.06 -1350.14 1.5
2862.06 -1421.2 1.5 2961.73 -1350.14 1.5 2961.73 -1421.2 1.5 3061.4
-1350.14 1.5 3061.4 -1421.2 1.5 3161.08 -1350.14 1.5 3161.08 -1421.2
1.5 3260.75 -1350.14 1.5 3260.75 -1421.2 1.5 3360.42 -1350.14 1.5
3360.42 -1421.2 1.5 3460.1 -1350.14 1.5 3460.1 -1421.2 1.5 3559.77
-1421.2 1.5 3559.77 -1350.14 1.5 -1324.23 -1279.08 1.5 -1423.91 -1279.08
1.5 -1224.56 -1279.08 1.5 -1124.89 -1279.08 1.5 -1025.21 -1279.08 1.5
-925.54 -1279.08 1.5 -825.867 -1279.08 1.5 -726.193 -1279.08 1.5 -626.52
-1279.08 1.5 -526.846 -1279.08 1.5 -427.173 -1279.08 1.5 -327.499 -1279.08
1.5 -227.826 -1279.08 1.5 -128.152 -1279.08 1.5 -28.4786 -1279.08 1.5
71.195 -1279.08 1.5 170.869 -1279.08 1.5 270.542 -1279.08 1.5 370.216
-1279.08 1.5 469.889 -1279.08 1.5 569.563 -1279.08 1.5 669.237 -1279.08
1.5 768.91 -1279.08 1.5 868.584 -1279.08 1.5 968.257 -1279.08 1.5
1067.93 -1279.08 1.5 1167.6 -1279.08 1.5 1267.28 -1279.08 1.5 1366.95
-1279.08 1.5 1466.63 -1279.08 1.5 1566.3 -1279.08 1.5 1665.97 -1279.08
1.5 1765.65 -1279.08 1.5 1865.32 -1279.08 1.5 1964.99 -1279.08 1.5
2064.67 -1279.08 1.5 2164.34 -1279.08 1.5 2264.01 -1279.08 1.5 2363.69
-1279.08 1.5 2463.36 -1279.08 1.5 2563.03 -1279.08 1.5 2662.71 -1279.08
1.5 2762.38 -1279.08 1.5 2862.06 -1279.08 1.5 2961.73 -1279.08 1.5
3061.4 -1279.08 1.5 3161.08 -1279.08 1.5 3260.75 -1279.08 1.5 3360.42
-1279.08 1.5 3460.1 -1279.08 1.5 3559.77 -1279.08 1.5 -1324.23 -1208.02
1.5 -1423.91 -1208.02 1.5 -1224.56 -1208.02 1.5 -1124.89 -1208.02 1.5
-1025.21 -1208.02 1.5 -925.54 -1208.02 1.5 -825.867 -1208.02 1.5 -726.193
-1208.02 1.5 -626.52 -1208.02 1.5 -526.846 -1208.02 1.5 -427.173 -1208.02
1.5 -327.499 -1208.02 1.5 -227.826 -1208.02 1.5 -128.152 -1208.02 1.5
-28.4786 -1208.02 1.5 71.1949 -1208.02 1.5 170.868 -1208.02 1.5 270.542
-1208.02 1.5 370.216 -1208.02 1.5 469.889 -1208.02 1.5 569.563 -1208.02
1.5 669.236 -1208.02 1.5 768.91 -1208.02 1.5 868.584 -1208.02 1.5
968.257 -1208.02 1.5 1067.93 -1208.02 1.5 1167.6 -1208.02 1.5 1267.28
-1208.02 1.5 1366.95 -1208.02 1.5 1466.63 -1208.02 1.5 1566.3 -1208.02
1.5 1665.97 -1208.02 1.5 1765.65 -1208.02 1.5 1865.32 -1208.02 1.5
1964.99 -1208.02 1.5 2064.67 -1208.02 1.5 2164.34 -1208.02 1.5 2264.01
-1208.02 1.5 2363.69 -1208.02 1.5 2463.36 -1208.02 1.5 2563.03 -1208.02
1.5 2662.71 -1208.02 1.5 2762.38 -1208.02 1.5 2862.06 -1208.02 1.5
2961.73 -1208.02 1.5 3061.4 -1208.02 1.5 3161.08 -1208.02 1.5 3260.75
-1208.02 1.5 3360.42 -1208.02 1.5 3460.1 -1208.02 1.5 3559.77 -1208.02
1.5 -1324.23 -1136.96 1.5 -1423.91 -1136.96 1.5 -1224.56 -1136.96 1.5
-1124.89 -1136.96 1.5 -1025.21 -1136.96 1.5 -925.54 -1136.96 1.5 -825.867
-1136.96 1.5 -726.193 -1136.96 1.5 -626.52 -1136.96 1.5 -526.846 -1136.96
1.5 -427.173 -1136.96 1.5 -327.499 -1136.96 1.5 -227.826 -1136.96 1.5
-128.152 -1136.96 1.5 -28.4787 -1136.96 1.5 71.1948 -1136.96 1.5 170.868
-1136.96 1.5 270.542 -1136.96 1.5 370.216 -1136.96 1.5 469.889 -1136.96
1.5 569.563 -1136.96 1.5 669.236 -1136.96 1.5 768.91 -1136.96 1.5
868.584 -1136.96 1.5 968.257 -1136.96 1.5 1067.93 -1136.96 1.5 1167.6
-1136.96 1.5 1267.28 -1136.96 1.5 1366.95 -1136.96 1.5 1466.63 -1136.96
1.5 1566.3 -1136.96 1.5 1665.97 -1136.96 1.5 1765.65 -1136.96 1.5
1865.32 -1136.96 1.5 1964.99 -1136.96 1.5 2064.67 -1136.96 1.5 2164.34
-1136.96 1.5 2264.01 -1136.96 1.5 2363.69 -1136.96 1.5 2463.36 -1136.96
1.5 2563.03 -1136.96 1.5 2662.71 -1136.96 1.5 2762.38 -1136.96 1.5
2862.06 -1136.96 1.5 2961.73 -1136.96 1.5 3061.4 -1136.96 1.5 3161.08
-1136.96 1.5 3260.75 -1136.96 1.5 3360.42 -1136.96 1.5 3460.1 -1136.96
1.5 3559.77 -1136.96 1.5 -1324.23 -1065.9 1.5 -1423.91 -1065.9 1.5
-1224.56 -1065.9 1.5 -1124.89 -1065.9 1.5 -1025.21 -1065.9 1.5 -925.54
-1065.9 1.5 -825.867 -1065.9 1.5 -726.193 -1065.9 1.5 -626.52 -1065.9
1.5 -526.846 -1065.9 1.5 -427.173 -1065.9 1.5 -327.499 -1065.9 1.5
-227.826 -1065.9 1.5 -128.152 -1065.9 1.5 -28.4788 -1065.9 1.5 71.1947
-1065.9 1.5 170.868 -1065.9 1.5 270.542 -1065.9 1.5 370.215 -1065.9
1.5 469.889 -1065.9 1.5 569.563 -1065.9 1.5 669.236 -1065.9 1.5
768.91 -1065.9 1.5 868.584 -1065.9 1.5 968.257 -1065.9 1.5 1067.93
-1065.9 1.5 1167.6 -1065.9 1.5 1267.28 -1065.9 1.5 1366.95 -1065.9
1.5 1466.63 -1065.9 1.5 1566.3 -1065.9 1.5 1665.97 -1065.9 1.5
1765.65 -1065.9 1.5 1865.32 -1065.9 1.5 1964.99 -1065.9 1.5 2064.67
-1065.9 1.5 2164.34 -1065.9 1.5 2264.01 -1065.9 1.5 2363.69 -1065.9
1.5 2463.36 -1065.9 1.5 2563.03 -1065.9 1.5 2662.71 -1065.9 1.5
2762.38 -1065.9 1.5 2862.06 -1065.9 1.5 2961.73 -1065.9 1.5 3061.4
-1065.9 1.5 3161.08 -1065.9 1.5 3260.75 -1065.9 1.5 3360.42 -1065.9
1.5 3460.1 -1065.9 1.5 3559.77 -1065.9 1.5 -1324.23 -994.838 1.5
-1423.91 -994.838 1.5 -1224.56 -994.838 1.5 -1124.89 -994.838 1.5 -1025.21
-994.838 1.5 -925.54 -994.839 1.5 -825.867 -994.839 1.5 -726.193 -994.838
1.5 -626.52 -994.838 1.5 -526.846 -994.838 1.5 -427.173 -994.838 1.5
-327.499 -994.838 1.5 -227.826 -994.837 1.5 -128.152 -994.837 1.5 -28.4789
-994.837 1.5 71.1945 -994.837 1.5 170.868 -994.837 1.5 270.542 -994.837
1.5 370.215 -994.838 1.5 469.889 -994.838 1.5 569.563 -994.838 1.5
669.237 -994.838 1.5 768.91 -994.838 1.5 868.584 -994.839 1.5 968.257
-994.839 1.5 1067.93 -994.839 1.5 1167.6 -994.839 1.5 1267.28 -994.839
1.5 1366.95 -994.839 1.5 1466.63 -994.839 1.5 1566.3 -994.839 1.5
1665.97 -994.839 1.5 1765.65 -994.839 1.5 1865.32 -994.839 1.5 1964.99
-994.839 1.5 2064.67 -994.839 1.5 2164.34 -994.839 1.5 2264.01 -994.839
1.5 2363.69 -994.839 1.5 2463.36 -994.839 1.5 2563.03 -994.839 1.5
2662.71 -994.839 1.5 2762.38 -994.839 1.5 2862.06 -994.839 1.5 2961.73
-994.839 1.5 3061.4 -994.839 1.5 3161.08 -994.839 1.5 3260.75 -994.839
1.5 3360.42 -994.839 1.5 3460.1 -994.839 1.5 3559.77 -994.839 1.5
-1324.23 -923.778 1.5 -1423.91 -923.778 1.5 -1224.56 -923.778 1.5 -1124.89
-923.779 1.5 -1025.21 -923.779 1.5 -925.54 -923.779 1.5 -825.867 -923.779
1.5 -875.703 -923.779 1.5 -726.193 -923.779 1.5 -776.03 -923.779 1.5
-626.52 -923.779 1.5 -676.356 -923.779 1.5 -526.846 -923.779 1.5 -576.683
-923.779 1.5 -427.172 -923.778 1.5 -477.009 -923.779 1.5 -327.499 -923.778
1.5 -377.336 -923.778 1.5 -227.826 -923.778 1.5 -277.662 -923.778 1.5
-128.152 -923.778 1.5 -177.989 -923.778 1.5 -28.4788 -923.777 1.5 -78.3154
-923.777 1.5 71.1947 -923.777 1.5 21.358 -923.777 1.5 170.868 -923.778
1.5 121.031 -923.777 1.5 270.542 -923.778 1.5 220.705 -923.778 1.5
370.216 -923.778 1.5 320.379 -923.778 1.5 469.889 -923.778 1.5 420.053
-923.778 1.5 569.563 -923.779 1.5 519.726 -923.778 1.5 669.237 -923.779
1.5 619.4 -923.779 1.5 768.91 -923.779 1.5 719.073 -923.779 1.5
868.584 -923.779 1.5 818.747 -923.779 1.5 968.257 -923.779 1.5 918.421
-923.779 1.5 1067.93 -923.779 1.5 1167.6 -923.779 1.5 1267.28 -923.779
1.5 1366.95 -923.779 1.5 1466.63 -923.779 1.5 1566.3 -923.779 1.5
1665.97 -923.779 1.5 1765.65 -923.779 1.5 1865.32 -923.779 1.5 1964.99
-923.779 1.5 2064.67 -923.779 1.5 2164.34 -923.779 1.5 2264.01 -923.779
1.5 2363.69 -923.779 1.5 2463.36 -923.779 1.5 2563.03 -923.779 1.5
2662.71 -923.779 1.5 2762.38 -923.779 1.5 2862.06 -923.779 1.5 2961.73
-923.779 1.5 3061.4 -923.779 1.5 3161.08 -923.779 1.5 3260.75 -923.779
1.5 3360.42 -923.779 1.5 3460.1 -923.779 1.5 3559.77 -923.779 1.5
-1324.23 -852.718 1.5 -1423.91 -852.718 1.5 -1224.56 -852.718 1.5 -1124.89
-852.719 1.5 -1025.21 -852.719 1.5 -925.54 -888.249 1.5 -925.54 -852.719
1.5 -875.703 -888.249 1.5 -776.03 -888.249 1.5 -800.948 -888.249 1.5
-825.867 -888.249 1.5 -676.356 -888.249 1.5 -701.275 -888.249 1.5 -726.193
-888.249 1.5 -576.683 -888.249 1.5 -601.601 -888.249 1.5 -626.52 -888.249
1.5 -477.009 -888.249 1.5 -501.928 -888.249 1.5 -526.846 -888.249 1.5
-377.336 -888.249 1.5 -402.254 -888.249 1.5 -427.172 -888.249 1.5 -277.662
-888.249 1.5 -302.58 -888.249 1.5 -327.499 -888.249 1.5 -177.989 -888.249
1.5 -202.907 -888.249 1.5 -227.825 -888.249 1.5 -78.3149 -888.249 1.5
-103.233 -888.249 1.5 -128.152 -888.249 1.5 21.3586 -888.249 1.5 -3.55977
-888.249 1.5 -28.4782 -888.249 1.5 121.032 -888.249 1.5 96.1138 -888.249
1.5 71.1954 -888.249 1.5 220.706 -888.249 1.5 195.787 -888.249 1.5
170.869 -888.249 1.5 320.379 -888.249 1.5 295.461 -888.249 1.5 270.543
[...]
CELL_DATA 27275
FIELD attributes 2
k 1 27275 float
3.10431 1.07019 0.602773 0.472366 0.429921 0.412945 0.402814 0.395229 0.39185 0.390702 0.391094
0.392677 0.393025 0.392587 0.39221 0.392209 0.392653 0.39362 0.395398 0.39764 0.401087
0.405848 0.412205 0.420335 0.429635 0.440145 0.451217 0.462409 0.472689 0.481142 0.487111
0.490817 0.492787 0.493582 0.493787 0.493716 0.493418 0.493105 0.492771 0.492407 0.492115
0.491898 0.491709 0.491664 0.491586 0.49156 0.491528 0.491574 0.491583 0.491444 3.10435
1.0702 0.602759 0.472344 0.429877 0.412936 0.402763 0.395227 0.391838 0.390682 0.391067
0.392687 0.393042 0.392586 0.392262 0.392281 0.392748 0.393697 0.395487 0.397735 0.401225
0.405953 0.412233 0.420345 0.429568 0.440116 0.451226 0.462448 0.472728 0.481149 0.487079
0.490803 0.492824 0.493597 0.493802 0.493759 0.493538 0.493247 0.492906 0.492539 0.492216
0.49203 0.491868 0.491705 0.49157 0.491534 0.491532 0.491571 0.491631 0.49149 3.10425
1.07017 0.602755 0.472375 0.429991 0.412926 0.402833 0.395246 0.391876 0.390722 0.391092
0.392672 0.393002 0.392537 0.39222 0.392291 0.392812 0.393777 0.395519 0.39777 0.401298
0.406008 0.412364 0.420381 0.429676 0.440217 0.451277 0.462499 0.472777 0.481212 0.487137
0.490853 0.49287 0.493676 0.493901 0.493872 0.49364 0.493319 0.492987 0.49266 0.492387
0.492136 0.491952 0.491808 0.491722 0.491676 0.491635 0.491668 0.49167 0.491518 3.10429
1.07018 0.602671 0.472374 0.429678 0.413006 0.402643 0.395192 0.391826 0.390661 0.390991
0.39259 0.392942 0.392481 0.392382 0.392504 0.393122 0.394115 0.395905 0.39807 0.40167
0.40633 0.412612 0.420699 0.429658 0.44023 0.45129 0.462588 0.472895 0.481337 0.487276
0.490992 0.492983 0.493736 0.493891 0.493781 0.49353 0.493272 0.49299 0.492637 0.492314
0.492086 0.491936 0.491871 0.491822 0.491815 0.491801 0.491816 0.491748 0.491531 3.10421
1.07018 0.602692 0.472431 0.429919 0.413133 0.402725 0.395245 0.391936 0.390752 0.391049
0.392587 0.392901 0.392395 0.392281 0.392452 0.393153 0.394145 0.395984 0.398135 0.401777
0.406335 0.412707 0.420612 0.42997 0.440574 0.451488 0.462783 0.473081 0.481549 0.487523
0.491234 0.493226 0.49399 0.494115 0.493963 0.493683 0.493339 0.492958 0.492545 0.492232
0.492047 0.491891 0.491858 0.491805 0.491807 0.491753 0.491725 0.491613 0.491341 3.10356
1.07007 0.602313 0.472918 0.428516 0.414162 0.402867 0.395311 0.391788 0.390516 0.390577
0.392148 0.392389 0.392104 0.392152 0.392508 0.393533 0.394876 0.397 0.39916 0.403147
0.407447 0.413811 0.422109 0.429838 0.440564 0.451579 0.463252 0.473938 0.482531 0.488453
0.492154 0.494146 0.494877 0.494773 0.494219 0.493723 0.493313 0.492934 0.492508 0.492179
0.491932 0.491805 0.491699 0.491652 0.491552 0.491497 0.49134 0.491275 0.491078 3.10474
1.07014 0.602787 0.472303 0.430909 0.411115 0.409156 0.409772 0.410233 0.411488 0.41379
0.414626 0.413143 0.408772 0.402523 0.396294 0.393957 0.394274 0.395496 0.399388 0.402986
0.408604 0.415362 0.422953 0.429168 0.439917 0.45005 0.461536 0.472233 0.481291 0.487949
0.492255 0.494444 0.495122 0.494979 0.494428 0.494 0.493558 0.493128 0.492632 0.49228
0.492062 0.492012 0.492028 0.492227 0.492294 0.492404 0.492368 0.492316 0.491785 3.10432
1.06999 0.602854 0.47172 0.431567 0.235887 0.403022 0.583387 0.595445 0.582058 0.574381
0.568488 0.562497 0.557385 0.554731 0.553606 0.553415 0.552873 0.55417 0.557746 0.563487
0.57232 0.58434 0.584328 1.04194 0.604403 0.495999 0.479454 0.482925 0.488102 0.491462
0.493333 0.494252 0.494517 0.494298 0.493221 0.492009 0.491038 0.490571 0.490623 0.490866
0.491149 0.491426 0.49165 0.491848 0.491943 0.492031 0.492039 0.492042 0.491717 3.10424
1.0697 0.603787 0.467548 0.43093 0.273581 0.956898 1.00204 0.590251 0.490195 0.477319
0.481873 0.486938 0.489448 0.490727 0.491483 0.491785 0.491375 0.489557 0.487519 0.485987
0.485549 0.485771 0.486465 0.487109 0.487521 0.487683 0.487689 0.487651 0.487701 0.487852
0.488096 0.488926 3.10487 1.06961 0.603942 0.466977 0.430475 0.274311 0.948824 1.00206
0.589667 0.489487 0.476816 0.481526 0.486528 0.489117 0.490669 0.491836 0.492245 0.491694
0.489569 0.48735 0.485785 0.48536 0.48558 0.486301 0.486999 0.487519 0.487749 0.48781
0.487784 0.487836 0.487955 0.488159 0.488902 3.10483 1.06963 0.603937 0.466891 0.430491
0.27438 0.946511 1.00066 0.589259 0.489306 0.476819 0.481554 0.486727 0.489638 0.491465
0.492651 0.492903 0.49208 0.489634 0.487335 0.485654 0.485147 0.485327 0.485952 0.486631
0.487121 0.487465 0.487588 0.487735 0.487838 0.488076 0.488304 0.489001 3.10488 1.06963
0.603898 0.466871 0.430462 0.27441 0.945592 1.00006 0.588876 0.488925 0.47639 0.481123
0.486378 0.489404 0.491363 0.492635 0.492896 0.492058 0.489615 0.487404 0.485842 0.485409
0.485617 0.48627 0.486922 0.48738 0.487722 0.487848 0.488026 0.488144 0.488395 0.48862
0.489303 3.10476 1.06959 0.603856 0.466871 0.430455 0.274483 0.945125 0.999768 0.589137
0.489243 0.476622 0.481282 0.486613 0.489738 0.491777 0.493006 0.493205 0.492236 0.48959
0.487234 0.485546 0.484977 0.485129 0.485744 0.486426 0.486962 0.487331 0.487523 0.487733
0.487881 0.488177 0.488403 0.489105 3.10479 1.06958 0.603799 0.466871 0.430416 0.274486
0.943248 0.998233 0.587837 0.488159 0.47536 0.47985 0.485133 0.488295 0.490547 0.492022
0.492408 0.491677 0.489374 0.487232 0.48568 0.485273 0.485472 0.4861 0.48673 0.487232
0.487574 0.487811 0.487937 0.488146 0.488367 0.488604 0.489333 3.10468 1.06954 0.603724
0.466901 0.430382 0.274412 0.942656 1.00266 0.591826 0.491723 0.478832 0.483265 0.488664
0.49199 0.494133 0.495233 0.49519 0.493623 0.490384 0.487621 0.485772 0.484922 0.484895
0.485338 0.486026 0.48661 0.487025 0.487351 0.487537 0.487769 0.488083 0.488324 0.489106
3.10469 1.06954 0.603637 0.466949 0.430356 0.274201 0.968529 1.01104 0.593733 0.491725
0.478315 0.483016 0.488527 0.491874 0.494019 0.495131 0.495102 0.493486 0.490406 0.487858
0.486107 0.48542 0.485506 0.48605 0.486669 0.487187 0.487518 0.487795 0.487888 0.488107
0.488334 0.488585 0.489356 3.10454 1.06949 0.603541 0.466997 0.430346 0.273982 0.953388
0.969549 0.57447 0.479722 0.466688 0.469598 0.472845 0.474789 0.476128 0.476918 0.476773
0.474948 0.473024 0.47263 0.473054 0.474676 0.477621 0.480515 0.482966 0.484907 0.486171
0.486994 0.487438 0.487768 0.488114 0.488347 0.489154 3.10447 1.06948 0.603454 0.467035
0.430338 0.27381 0.917857 0.914529 0.540469 0.446777 0.426272 0.425961 0.428643 0.43249
0.436343 0.441622 0.447696 0.452283 0.456011 0.4599 0.464103 0.468547 0.472981 0.477069
0.480528 0.483229 0.485136 0.48631 0.487137 0.487586 0.488109 0.488414 0.489321 3.10427
1.06941 0.603381 0.467054 0.430338 0.273627 0.652551 0.865499 0.543075 0.47191 0.462784
0.46514 0.470052 0.476004 0.481376 0.484957 0.486484 0.486721 0.485936 0.48449 0.483419
0.482817 0.482722 0.483049 0.483893 0.484692 0.485468 0.485954 0.486641 0.486943 0.487539
0.487938 0.489183 3.10419 1.06936 0.603341 0.46705 0.430317 0.273444 1.0766 1.1504
0.677899 0.553073 0.528773 0.530567 0.535702 0.543164 0.548251 0.549504 0.547338 0.540893
0.531181 0.519833 0.508389 0.498355 0.491409 0.487322 0.4854 0.484951 0.48527 0.485664
0.486596 0.487043 0.488017 0.488414 0.489623 3.10412 1.06933 0.603325 0.467038 0.430311
0.273362 0.552223 0.663506 0.416231 0.35379 0.345501 0.348852 0.358982 0.378551 0.400346
0.420406 0.436502 0.447855 0.455423 0.460582 0.464869 0.469098 0.473544 0.477821 0.481677
0.484433 0.486468 0.487397 0.488138 0.488307 0.488736 0.488931 0.489748 3.10413 1.06933
0.603326 0.467031 0.430315 0.273436 0.804788 0.845764 0.509443 0.423811 0.402604 0.399337
0.400319 0.401197 0.402411 0.40688 0.414815 0.424298 0.43578 0.447595 0.458588 0.467885
0.475278 0.480727 0.484475 0.486803 0.488092 0.488634 0.488812 0.488873 0.488898 0.489023
0.489547 3.10419 1.06938 0.603347 0.467037 0.430332 0.273505 0.982015 1.05081 0.618583
0.509882 0.489562 0.490789 0.494094 0.495578 0.495775 0.49531 0.493863 0.490846 0.487043
0.483892 0.482246 0.481887 0.482111 0.483164 0.48455 0.485673 0.486529 0.487129 0.487508
0.487776 0.487951 0.488136 0.489071 3.10426 1.06941 0.603403 0.467033 0.430341 0.273605
1.07323 1.10454 0.668728 0.559854 0.539144 0.540356 0.544262 0.546231 0.545573 0.54253
0.537709 0.530446 0.520291 0.508614 0.497657 0.489859 0.485557 0.483907 0.483758 0.484479
0.485686 0.486543 0.487289 0.487683 0.488153 0.488414 0.489338 3.10445 1.06948 0.603481
0.467013 0.430341 0.273758 0.950042 0.911853 0.558022 0.473728 0.458702 0.459821 0.463561
0.467998 0.472984 0.477417 0.48026 0.481391 0.481462 0.48147 0.481746 0.482458 0.483496
0.484549 0.485384 0.486053 0.486554 0.486922 0.487268 0.48745 0.487833 0.488094 0.489052
3.10455 1.0695 0.603573 0.46698 0.430352 0.273928 0.896009 0.955597 0.564804 0.464712
0.442526 0.445164 0.450275 0.45458 0.459256 0.463759 0.467565 0.470382 0.472182 0.47413
0.476864 0.479588 0.481978 0.483883 0.485285 0.486248 0.486864 0.487226 0.487528 0.487732
0.488093 0.4884 0.489297 3.10479 1.06957 0.603653 0.466956 0.430368 0.274104 0.927092
0.985264 0.582267 0.485348 0.472726 0.476724 0.482551 0.486407 0.489187 0.490867 0.491251
0.490383 0.487944 0.485891 0.484547 0.48438 0.484713 0.485515 0.486263 0.486827 0.48717
0.487367 0.487565 0.487715 0.488 0.488266 0.489085 3.10475 1.06957 0.603729 0.466937
0.430406 0.274296 0.941207 0.994582 0.58671 0.48769 0.474735 0.479208 0.484953 0.488512
0.491092 0.492753 0.493224 0.4926 0.490473 0.488291 0.486689 0.486324 0.486445 0.486871
0.487321 0.487674 0.487829 0.487931 0.487991 0.488128 0.488321 0.488561 0.489274 3.10493
1.06963 0.603801 0.466902 0.430417 0.274373 0.946503 0.997758 0.588433 0.488988 0.476451
0.481084 0.486438 0.489565 0.491585 0.492817 0.493043 0.492163 0.489674 0.487463 0.485834
0.485356 0.485531 0.486111 0.48672 0.487172 0.487459 0.487622 0.487696 0.487845 0.488082
0.488287 0.489041 3.10484 1.06962 0.603867 0.466882 0.430452 0.274392 0.948503 0.998851
0.588407 0.488673 0.476163 0.480885 0.486172 0.489203 0.491175 0.492506 0.492868 0.492185
0.489917 0.487712 0.486145 0.485719 0.485914 0.486508 0.487127 0.487527 0.487774 0.487872
0.487975 0.488069 0.488287 0.488495 0.48914 3.10489 1.06959 0.603899 0.466939 0.430431
0.27414 0.950666 1.00073 0.589365 0.489424 0.476869 0.481591 0.486646 0.489264 0.49081
0.491944 0.49231 0.491726 0.489557 0.48728 0.485626 0.485157 0.485366 0.486081 0.486777
0.487274 0.48748 0.487565 0.487549 0.487592 0.487744 0.487966 0.488728 3.10424 1.06969
0.603765 0.467515 0.430896 0.274405 0.949706 1.00102 0.58973 0.489792 0.47699 0.481552
0.486635 0.489215 0.490558 0.491397 0.491772 0.491422 0.489713 0.487736 0.486296 0.485919
0.486164 0.486851 0.487469 0.487865 0.487967 0.48794 0.487829 0.487878 0.487983 0.488252
0.489065 3.10434 1.07 0.602841 0.471715 0.43157 0.244236 0.430989 0.705052 0.684141
0.670922 0.663065 0.656253 0.649046 0.645051 0.643658 0.64522 0.648779 0.652806 0.65731
0.662882 0.6705 0.680903 0.698563 0.95841 1.04166 0.604326 0.495979 0.479489 0.48299
0.488237 0.49164 0.493549 0.494473 0.494678 0.494353 0.493195 0.491961 0.490914 0.490398
0.49043 0.490657 0.490938 0.491206 0.491427 0.491642 0.491715 0.491838 0.491872 0.491903
0.491653 3.10482 1.07013 0.602815 0.472233 0.430856 0.411348 0.409688 0.41076 0.411741
0.413779 0.416377 0.417207 0.415573 0.410987 0.403715 0.396633 0.394186 0.394274 0.39536
0.399151 0.402787 0.408421 0.415308 0.422988 0.429345 0.439994 0.450068 0.461508 0.472117
0.481138 0.487797 0.49212 0.494358 0.495079 0.494975 0.494452 0.49403 0.49363 0.493253
0.49274 0.492385 0.492135 0.49211 0.492133 0.492347 0.492404 0.492513 0.492471 0.492413
0.491838 3.10355 1.07006 0.602302 0.472942 0.428442 0.41415 0.402824 0.395349 0.391902
0.390655 0.390764 0.392431 0.392638 0.392438 0.392496 0.392901 0.393964 0.395271 0.39737
0.399659 0.403596 0.407915 0.41421 0.42241 0.430118 0.440845 0.45182 0.463463 0.474147
0.482765 0.488667 0.492311 0.494274 0.495008 0.494905 0.494323 0.493805 0.493367 0.492991
0.492542 0.492187 0.491929 0.491774 0.491658 0.491612 0.491516 0.491454 0.491277 0.491213
0.491005 3.10422 1.07019 0.602695 0.47244 0.429921 0.413204 0.402767 0.395312 0.392027
0.39087 0.391175 0.392752 0.393118 0.392646 0.392572 0.392769 0.393502 0.394475 0.396331
0.398466 0.402134 0.406663 0.413012 0.420868 0.430149 0.440709 0.451568 0.462825 0.473099
0.481575 0.48755 0.491274 0.493293 0.494056 0.494191 0.494048 0.493769 0.493444 0.49307
0.492665 0.492393 0.492177 0.492041 0.491997 0.491931 0.491892 0.491834 0.491775 0.49167
0.491395 3.10429 1.07019 0.602674 0.472382 0.429678 0.413045 0.402674 0.395256 0.391912
0.390791 0.39116 0.392749 0.393105 0.392695 0.392684 0.392835 0.393494 0.394461 0.396254
0.39845 0.402019 0.406655 0.412909 0.420951 0.429862 0.440397 0.451426 0.462713 0.473008
0.481457 0.487403 0.491117 0.493104 0.493845 0.493978 0.493853 0.493614 0.493339 0.493024
0.492637 0.492298 0.492083 0.491933 0.491867 0.491755 0.491756 0.491735 0.491742 0.49168
0.491481 3.10426 1.07018 0.60277 0.472373 0.430013 0.412985 0.402847 0.395315 0.391976
0.390847 0.391224 0.392818 0.393188 0.392726 0.392506 0.392604 0.393165 0.394115 0.395836
0.398097 0.401625 0.406312 0.412643 0.420619 0.429861 0.44036 0.451365 0.462553 0.472823
0.481257 0.487178 0.490918 0.492933 0.493766 0.493986 0.493925 0.493687 0.49342 0.493141
0.492816 0.492503 0.492225 0.492042 0.491919 0.491851 0.491828 0.491758 0.491759 0.491729
0.491538 3.10436 1.0702 0.60278 0.472336 0.429906 0.412974 0.402797 0.395293 0.391934
0.390814 0.391219 0.392833 0.393219 0.392775 0.392558 0.392599 0.393092 0.394044 0.395819
0.398065 0.401557 0.406273 0.412533 0.420583 0.429742 0.440256 0.451339 0.462554 0.472844
0.481277 0.487193 0.490901 0.492891 0.493666 0.493867 0.493823 0.493567 0.493247 0.492931
0.492596 0.492336 0.492088 0.491912 0.491795 0.491687 0.491652 0.491627 0.491656 0.491649
0.491482 3.10433 1.07019 0.602794 0.472359 0.429951 0.412983 0.402859 0.395306 0.391948
0.390828 0.391246 0.392832 0.393209 0.392798 0.392498 0.392508 0.392965 0.393959 0.395725
0.397953 0.401422 0.406186 0.412505 0.420563 0.429785 0.440257 0.451315 0.462509 0.472795
0.481245 0.48722 0.49092 0.492908 0.493702 0.493894 0.493808 0.493524 0.493213 0.492868
0.492525 0.492218 0.49203 0.491843 0.49177 0.491662 0.49167 0.491686 0.491772 0.491769
0.49157 0.0724349 0.424894 0.130494 0.175917 0.0992554 0.0790991 0.136313 0.437473 0.194538
0.355781 0.0339855 0.460855 0.150128 0.1622 0.230424 0.0582001 0.430432 0.0826319 0.171518
0.283197 0.201628 0.136557 0.249245 0.27158 0.622995 0.122219 0.484691 0.194288 1.19382
0.358952 0.0206235 0.0524071 1.43475 0.436317 0.480443 0.876995 2.07578 0.216648 0.456664
1.38127 0.185367 0.6951 0.244757 1.2576 2.40667 2.22999 2.28859 2.32413 2.2637
2.04302 2.39599 0.380622 0.987337 1.46215 0.203605 0.0750543 2.86579 1.81468 1.8333
0.278815 1.02187 0.790086 0.527859 1.28691 0.340045 1.19329 1.07358 0.0834263 0.441411
0.293933 0.0767369 0.186461 0.937569 1.96578 2.02746 0.798816 0.275577 0.69215 0.0825609
0.326926 0.141207 0.27926 0.343968 0.755781 1.20551 1.92548 2.033 1.89798 1.99041
0.0350023 0.0342125 0.0597056 0.226415 0.983552 0.421347 1.23641 0.58781 0.926454 0.874546
1.24922 2.50198 2.63012 1.08778 0.0563459 0.462582 1.68287 0.731038 2.34806 2.17865
0.384166 2.55796 1.1865 1.12436 2.54392 0.544666 0.059347 0.210462 0.292846 0.27348
2.34499 1.17216 1.02708 2.51029 0.642964 0.684761 0.813011 0.759591 1.95296 2.33404
2.29199 2.19341 1.31747 1.31501 3.00868 0.363793 1.91526 1.9488 1.30404 2.25358
1.1729 0.369406 0.0812258 0.242123 0.103682 1.45391 0.572188 0.0519916 0.88571 0.757377
2.52734 0.20142 0.277509 0.75916 0.720088 1.44737 1.38008 0.775839 1.69032 0.321758
0.581397 0.551494 0.893809 0.940159 0.134832 1.16688 2.35393 0.839338 2.113 1.48179
1.74644 1.31489 1.12267 0.172519 0.0723192 0.173248 1.62644 2.52752 2.50408 0.826652
1.21236 1.26012 2.23638 0.75065 2.41314 0.601897 0.192718 0.987755 0.725674 0.291671
0.687372 1.73843 0.8291 1.75004 2.68253 1.84636 2.02602 1.34083 0.831416 0.374388
0.546974 1.44413 1.03423 1.44609 1.43679 1.09313 0.497255 0.685359 0.475868 0.364272
0.556151 0.702284 0.574942 0.411083 0.316025 0.518906 0.412953 1.04224 2.14806 0.91197
2.19409 0.24803 0.902858 1.19976 0.19067 0.208726 0.485577 0.122753 0.322199 0.671963
0.720985 0.614895 0.460952 0.795537 1.14145 0.174028 0.510888 0.649491 1.26037 0.338948
1.26786 0.355146 0.437175 0.114282 0.308738 0.226012 1.36893 0.287459 0.275641 1.27336
0.436731 0.389751 0.522139 1.53254 1.76822 0.576029 0.591195 1.61484 0.882663 0.848782
0.163602 0.60879 0.33929 0.350248 1.06293 1.27776 0.233856 0.433172 1.10904 0.338995
1.19004 0.800194 1.88593 0.660845 0.395604 0.627417 0.213235 0.264441 0.341754 0.165026
0.142061 0.110493 0.161238 0.60508 0.401983 1.23236 2.04744 0.816566 1.84732 1.35103
1.60662 1.79141 1.58092 1.73875 0.349683 0.364792 0.295235 0.197785 1.13963 0.377903
1.24562 0.377205 1.71271 1.80065 1.32438 1.84493 0.798232 0.659554 1.60955 0.594922
0.188892 0.314256 0.534533 0.225276 0.203241 0.729175 0.223855 0.240527 1.02769 1.06291
0.992383 1.44632 0.0950601 2.2148 0.265658 0.948162 1.05665 0.894089 0.726622 0.295651
0.136535 0.984321 0.60824 0.531045 0.464 0.593291 1.215 0.453422 0.761183 0.734119
0.374395 0.353133 0.488034 0.326052 1.25745 1.00338 0.621959 0.523935 1.67577 1.97269
1.86679 1.03818 0.394653 0.960196 0.0671001 0.468316 0.294656 0.218288 2.11154 1.53438
2.20297 0.367739 0.317554 1.22499 1.17989 2.41739 1.86974 1.07699 2.28669 0.158844
0.551353 0.356126 0.0775009 0.316325 0.488858 0.794191 0.468479 0.268062 0.603333 0.931178
0.127271 0.366333 0.299273 0.0462021 0.411606 0.132719 0.557619 0.404905 0.0708222 0.454082
0.261339 0.38729 0.669964 1.0163 1.66682 0.313341 0.486901 0.762719 0.669195 1.20055
0.15593 0.571397 3.51529 3.0681 3.36439 1.90659 3.29829 3.06093 2.66916 2.27662
3.06079 0.263769 3.56585 0.844768 0.933525 0.50071 0.388405 1.29266 1.17721 0.624265
1.02252 0.793146 0.747627 1.76046 0.0597808 0.161283 0.455849 0.0511206 0.160068 0.0611462
0.187064 0.919001 0.621599 1.54845 0.643627 1.56709 1.22851 2.0247 2.36722 2.40114
2.25984 0.651453 0.969291 1.08606 1.43028 1.7893 1.87199 1.56839 2.08128 1.1547
1.164 0.561983 1.26822 1.44582 1.48576 1.18726 1.45403 0.808463 0.131586 0.165063
0.0445366 0.557685 0.438365 0.349304 0.435113 1.54032 0.686523 1.04893 0.0944433 0.437355
0.596881 0.497629 0.521559 0.25853 0.0792076 0.1352 0.294952 0.35624 0.190999 0.16763
0.143057 0.250877 0.301675 0.770276 0.770276 0.370947 0.394786 1.00706 0.386222 0.924125
0.367821 0.812134 0.8328 0.332484 0.375588 0.372817 1.05437 0.42017 1.0614 0.863007
2.15408 2.22467 1.61121 1.32559 1.86447 0.175921 0.550884 0.149724 0.12497 0.334174
1.02837 0.130051 0.394605 1.29976 0.59773 0.980066 0.733031 0.965919 0.416441 0.684358
0.41078 0.359793 0.258986 1.39735 1.18787 0.827512 0.361783 0.450061 0.12369 0.310076
0.298829 0.120265 0.0473425 0.31193 0.279069 0.130416 0.60734 0.430845 0.0627645 0.171149
0.201219 0.327434 0.874475 1.50081 0.39299 0.534127 0.60785 0.744372 0.216894 1.44732
0.763881 0.735981 0.797166 0.593076 0.367911 0.298125 0.462805 0.845724 0.301436 0.250165
0.803675 0.925955 1.61761 2.23146 2.11555 1.13697 0.538797 0.904437 0.238603 0.226414
0.952606 0.472723 1.16434 0.401761 1.26502 0.517093 0.475533 0.382234 1.44948 2.24743
1.03815 2.21985 1.0782 0.872253 0.468662 0.99232 1.03753 0.901855 0.96827 0.433751
0.991894 0.892941 0.105205 0.356885 0.564436 0.501142 0.578344 0.662349 1.77878 1.0514
1.58295 0.689385 1.79164 2.2246 2.12786 2.08967 1.79978 1.69402 1.22952 1.75145
0.17437 0.0865582 0.149209 0.326367 2.09015 0.779347 1.80252 1.83726 0.0995519 0.31979
0.349722 1.19988 0.332092 0.310158 0.921333 0.245438 2.2709 0.59793 1.96821 0.653412
0.0595251 1.30117 2.65472 2.66087 2.11024 1.04833 0.84368 2.60903 2.41804 2.14271
0.0952182 2.45608 1.45385 1.70581 0.292944 0.757715 2.43961 1.60259 1.4317 0.583764
1.26549 1.01133 1.45633 0.752996 0.0946863 0.233232 1.3821 1.78535 0.551744 1.26834
0.587354 0.20091 0.848646 0.112716 0.113685 0.486733 0.235626 0.816287 0.502242 0.513022
2.04342 2.57549 0.318234 2.26815 1.92485 1.71858 2.23198 1.00871 2.24844 1.87459