# vtk DataFile Version 2.0
sampleSurface
ASCII
DATASET POLYDATA
POINTS 28311 float
-1488.34 -1520.34 1.5 -1600.36 -1520.34 1.5 -1600.36 -1600.36 1.5 -1488.34 -1600.36
1.5 -1376.31 -1520.34 1.5 -1376.31 -1600.36 1.5 -1264.29 -1520.34 1.5
-1264.29 -1600.36 1.5 -1152.26 -1520.34 1.5 -1152.26 -1600.36 1.5 -1040.24
-1520.34 1.5 -1040.24 -1600.36 1.5 -928.21 -1520.34 1.5 -928.21 -1600.36
1.5 -816.185 -1520.34 1.5 -816.185 -1600.36 1.5 -704.159 -1520.34 1.5
-704.159 -1600.36 1.5 -592.134 -1520.34 1.5 -592.134 -1600.36 1.5 -480.109
-1520.34 1.5 -480.109 -1600.36 1.5 -368.083 -1520.34 1.5 -368.083 -1600.36
1.5 -256.058 -1520.34 1.5 -256.058 -1600.36 1.5 -144.033 -1520.34 1.5
-144.033 -1600.36 1.5 -32.0074 -1520.34 1.5 -32.0074 -1600.36 1.5 80.0179
-1520.34 1.5 80.0179 -1600.36 1.5 192.043 -1520.34 1.5 192.043 -1600.36
1.5 304.069 -1520.34 1.5 304.069 -1600.36 1.5 416.094 -1520.34 1.5
416.094 -1600.36 1.5 528.119 -1520.34 1.5 528.119 -1600.36 1.5 640.145
-1520.34 1.5 640.145 -1600.36 1.5 752.17 -1520.34 1.5 752.17 -1600.36
1.5 864.195 -1520.34 1.5 864.195 -1600.36 1.5 976.221 -1520.34 1.5
976.221 -1600.36 1.5 1088.25 -1520.34 1.5 1088.25 -1600.36 1.5 1200.27
-1520.34 1.5 1200.27 -1600.36 1.5 1312.3 -1520.34 1.5 1312.3 -1600.36
1.5 1424.32 -1520.34 1.5 1424.32 -1600.36 1.5 1536.35 -1520.34 1.5
1536.35 -1600.36 1.5 1648.37 -1520.34 1.5 1648.37 -1600.36 1.5 1760.4
-1520.34 1.5 1760.4 -1600.36 1.5 1872.42 -1520.34 1.5 1872.42 -1600.36
1.5 1984.45 -1520.34 1.5 1984.45 -1600.36 1.5 2096.47 -1520.34 1.5
2096.47 -1600.36 1.5 2208.5 -1520.34 1.5 2208.5 -1600.36 1.5 2320.52
-1520.34 1.5 2320.52 -1600.36 1.5 2432.55 -1520.34 1.5 2432.55 -1600.36
1.5 2544.58 -1520.34 1.5 2544.58 -1600.36 1.5 2656.6 -1520.34 1.5
2656.6 -1600.36 1.5 2768.63 -1520.34 1.5 2768.63 -1600.36 1.5 2880.65
-1520.34 1.5 2880.65 -1600.36 1.5 2992.68 -1520.34 1.5 2992.68 -1600.36
1.5 3104.7 -1520.34 1.5 3104.7 -1600.36 1.5 3216.73 -1520.34 1.5
3216.73 -1600.36 1.5 3328.75 -1520.34 1.5 3328.75 -1600.36 1.5 3440.78
-1520.34 1.5 3440.78 -1600.36 1.5 3552.8 -1520.34 1.5 3552.8 -1600.36
1.5 3664.83 -1520.34 1.5 3664.83 -1600.36 1.5 3776.85 -1520.34 1.5
3776.85 -1600.36 1.5 3888.88 -1520.34 1.5 3888.88 -1600.36 1.5 4000.9
-1600.36 1.5 4000.9 -1520.34 1.5 -1488.34 -1440.33 1.5 -1600.36 -1440.33
1.5 -1376.31 -1440.33 1.5 -1264.29 -1440.33 1.5 -1152.26 -1440.33 1.5
-1040.24 -1440.33 1.5 -928.21 -1440.33 1.5 -816.185 -1440.33 1.5 -704.159
-1440.33 1.5 -592.134 -1440.33 1.5 -480.109 -1440.33 1.5 -368.083 -1440.33
1.5 -256.058 -1440.33 1.5 -144.033 -1440.33 1.5 -32.0074 -1440.33 1.5
80.0179 -1440.33 1.5 192.043 -1440.33 1.5 304.069 -1440.33 1.5 416.094
-1440.33 1.5 528.119 -1440.33 1.5 640.145 -1440.33 1.5 752.17 -1440.33
1.5 864.195 -1440.33 1.5 976.221 -1440.33 1.5 1088.25 -1440.33 1.5
1200.27 -1440.33 1.5 1312.3 -1440.33 1.5 1424.32 -1440.33 1.5 1536.35
-1440.33 1.5 1648.37 -1440.33 1.5 1760.4 -1440.33 1.5 1872.42 -1440.33
1.5 1984.45 -1440.33 1.5 2096.47 -1440.33 1.5 2208.5 -1440.33 1.5
2320.52 -1440.33 1.5 2432.55 -1440.33 1.5 2544.58 -1440.33 1.5 2656.6
-1440.33 1.5 2768.63 -1440.33 1.5 2880.65 -1440.33 1.5 2992.68 -1440.33
1.5 3104.7 -1440.33 1.5 3216.73 -1440.33 1.5 3328.75 -1440.33 1.5
3440.78 -1440.33 1.5 3552.8 -1440.33 1.5 3664.83 -1440.33 1.5 3776.85
-1440.33 1.5 3888.88 -1440.33 1.5 4000.9 -1440.33 1.5 -1488.34 -1360.31
1.5 -1600.36 -1360.31 1.5 -1376.31 -1360.31 1.5 -1264.29 -1360.31 1.5
-1152.26 -1360.31 1.5 -1040.24 -1360.31 1.5 -928.21 -1360.31 1.5 -816.185
-1360.31 1.5 -704.159 -1360.31 1.5 -592.134 -1360.31 1.5 -480.109 -1360.31
1.5 -368.083 -1360.31 1.5 -256.058 -1360.31 1.5 -144.033 -1360.31 1.5
-32.0075 -1360.31 1.5 80.0178 -1360.31 1.5 192.043 -1360.31 1.5 304.069
-1360.31 1.5 416.094 -1360.31 1.5 528.119 -1360.31 1.5 640.145 -1360.31
1.5 752.17 -1360.31 1.5 864.195 -1360.31 1.5 976.221 -1360.31 1.5
1088.25 -1360.31 1.5 1200.27 -1360.31 1.5 1312.3 -1360.31 1.5 1424.32
-1360.31 1.5 1536.35 -1360.31 1.5 1648.37 -1360.31 1.5 1760.4 -1360.31
1.5 1872.42 -1360.31 1.5 1984.45 -1360.31 1.5 2096.47 -1360.31 1.5
2208.5 -1360.31 1.5 2320.52 -1360.31 1.5 2432.55 -1360.31 1.5 2544.58
-1360.31 1.5 2656.6 -1360.31 1.5 2768.63 -1360.31 1.5 2880.65 -1360.31
1.5 2992.68 -1360.31 1.5 3104.7 -1360.31 1.5 3216.73 -1360.31 1.5
3328.75 -1360.31 1.5 3440.78 -1360.31 1.5 3552.8 -1360.31 1.5 3664.83
-1360.31 1.5 3776.85 -1360.31 1.5 3888.88 -1360.31 1.5 4000.9 -1360.31
1.5 -1488.34 -1280.29 1.5 -1600.36 -1280.29 1.5 -1376.31 -1280.29 1.5
-1264.29 -1280.29 1.5 -1152.26 -1280.29 1.5 -1040.24 -1280.29 1.5 -928.21
-1280.29 1.5 -816.185 -1280.29 1.5 -704.159 -1280.29 1.5 -592.134 -1280.29
1.5 -480.109 -1280.29 1.5 -368.083 -1280.29 1.5 -256.058 -1280.29 1.5
-144.033 -1280.29 1.5 -32.0075 -1280.29 1.5 80.0178 -1280.29 1.5 192.043
-1280.29 1.5 304.068 -1280.29 1.5 416.094 -1280.29 1.5 528.119 -1280.29
1.5 640.145 -1280.29 1.5 752.17 -1280.29 1.5 864.195 -1280.29 1.5
976.221 -1280.29 1.5 1088.25 -1280.29 1.5 1200.27 -1280.29 1.5 1312.3
-1280.29 1.5 1424.32 -1280.29 1.5 1536.35 -1280.29 1.5 1648.37 -1280.29
1.5 1760.4 -1280.29 1.5 1872.42 -1280.29 1.5 1984.45 -1280.29 1.5
2096.47 -1280.29 1.5 2208.5 -1280.29 1.5 2320.52 -1280.29 1.5 2432.55
-1280.29 1.5 2544.58 -1280.29 1.5 2656.6 -1280.29 1.5 2768.63 -1280.29
1.5 2880.65 -1280.29 1.5 2992.68 -1280.29 1.5 3104.7 -1280.29 1.5
3216.73 -1280.29 1.5 3328.75 -1280.29 1.5 3440.78 -1280.29 1.5 3552.8
-1280.29 1.5 3664.83 -1280.29 1.5 3776.85 -1280.29 1.5 3888.88 -1280.29
1.5 4000.9 -1280.29 1.5 -1488.34 -1200.27 1.5 -1600.36 -1200.27 1.5
-1376.31 -1200.27 1.5 -1264.29 -1200.27 1.5 -1152.26 -1200.27 1.5 -1040.24
-1200.27 1.5 -928.21 -1200.27 1.5 -816.185 -1200.27 1.5 -704.159 -1200.27
1.5 -592.134 -1200.27 1.5 -480.109 -1200.27 1.5 -368.083 -1200.27 1.5
-256.058 -1200.27 1.5 -144.033 -1200.27 1.5 -32.0076 -1200.27 1.5 80.0177
-1200.27 1.5 192.043 -1200.27 1.5 304.068 -1200.27 1.5 416.094 -1200.27
1.5 528.119 -1200.27 1.5 640.145 -1200.27 1.5 752.17 -1200.27 1.5
864.195 -1200.27 1.5 976.221 -1200.27 1.5 1088.25 -1200.27 1.5 1200.27
-1200.27 1.5 1312.3 -1200.27 1.5 1424.32 -1200.27 1.5 1536.35 -1200.27
1.5 1648.37 -1200.27 1.5 1760.4 -1200.27 1.5 1872.42 -1200.27 1.5
1984.45 -1200.27 1.5 2096.47 -1200.27 1.5 2208.5 -1200.27 1.5 2320.52
-1200.27 1.5 2432.55 -1200.27 1.5 2544.58 -1200.27 1.5 2656.6 -1200.27
1.5 2768.63 -1200.27 1.5 2880.65 -1200.27 1.5 2992.68 -1200.27 1.5
3104.7 -1200.27 1.5 3216.73 -1200.27 1.5 3328.75 -1200.27 1.5 3440.78
-1200.27 1.5 3552.8 -1200.27 1.5 3664.83 -1200.27 1.5 3776.85 -1200.27
1.5 3888.88 -1200.27 1.5 4000.9 -1200.27 1.5 -1488.34 -1120.25 1.5
-1600.36 -1120.25 1.5 -1376.31 -1120.25 1.5 -1264.29 -1120.25 1.5 -1152.26
-1120.25 1.5 -1040.24 -1120.25 1.5 -928.21 -1120.25 1.5 -816.185 -1120.25
1.5 -704.159 -1120.25 1.5 -592.134 -1120.25 1.5 -480.109 -1120.25 1.5
-368.083 -1120.25 1.5 -256.058 -1120.25 1.5 -144.033 -1120.25 1.5 -32.0077
-1120.25 1.5 80.0176 -1120.25 1.5 192.043 -1120.25 1.5 304.068 -1120.25
1.5 416.094 -1120.25 1.5 528.119 -1120.25 1.5 640.145 -1120.25 1.5
752.17 -1120.25 1.5 864.195 -1120.25 1.5 976.221 -1120.25 1.5 1088.25
-1120.25 1.5 1200.27 -1120.25 1.5 1312.3 -1120.25 1.5 1424.32 -1120.25
1.5 1536.35 -1120.25 1.5 1648.37 -1120.25 1.5 1760.4 -1120.25 1.5
1872.42 -1120.25 1.5 1984.45 -1120.25 1.5 2096.47 -1120.25 1.5 2208.5
-1120.25 1.5 2320.52 -1120.25 1.5 2432.55 -1120.25 1.5 2544.58 -1120.25
1.5 2656.6 -1120.25 1.5 2768.63 -1120.25 1.5 2880.65 -1120.25 1.5
2992.68 -1120.25 1.5 3104.7 -1120.25 1.5 3216.73 -1120.25 1.5 3328.75
-1120.25 1.5 3440.78 -1120.25 1.5 3552.8 -1120.25 1.5 3664.83 -1120.25
1.5 3776.85 -1120.25 1.5 3888.88 -1120.25 1.5 4000.9 -1120.25 1.5
-1488.34 -1040.24 1.5 -1600.36 -1040.24 1.5 -1376.31 -1040.24 1.5 -1264.29
-1040.24 1.5 -1152.26 -1040.24 1.5 -1040.24 -1040.24 1.5 -928.21 -1040.24
1.5 -984.223 -1040.24 1.5 -816.185 -1040.24 1.5 -872.197 -1040.24 1.5
-704.159 -1040.24 1.5 -760.172 -1040.24 1.5 -592.134 -1040.24 1.5 -648.147
-1040.24 1.5 -480.109 -1040.23 1.5 -536.121 -1040.24 1.5 -368.083 -1040.23
1.5 -424.096 -1040.23 1.5 -256.058 -1040.23 1.5 -312.071 -1040.23 1.5
-144.033 -1040.23 1.5 -200.045 -1040.23 1.5 -32.0076 -1040.23 1.5 -88.0202
-1040.23 1.5 80.0177 -1040.23 1.5 24.0051 -1040.23 1.5 192.043 -1040.23
1.5 136.03 -1040.23 1.5 304.068 -1040.23 1.5 248.056 -1040.23 1.5
416.094 -1040.23 1.5 360.081 -1040.23 1.5 528.119 -1040.23 1.5 472.107
-1040.23 1.5 640.145 -1040.24 1.5 584.132 -1040.23 1.5 752.17 -1040.24
1.5 696.157 -1040.24 1.5 864.195 -1040.24 1.5 808.183 -1040.24 1.5
976.221 -1040.24 1.5 920.208 -1040.24 1.5 1088.25 -1040.24 1.5 1032.23
-1040.24 1.5 1200.27 -1040.24 1.5 1312.3 -1040.24 1.5 1424.32 -1040.24
1.5 1536.35 -1040.24 1.5 1648.37 -1040.24 1.5 1760.4 -1040.24 1.5
1872.42 -1040.24 1.5 1984.45 -1040.24 1.5 2096.47 -1040.24 1.5 2208.5
-1040.24 1.5 2320.52 -1040.24 1.5 2432.55 -1040.24 1.5 2544.58 -1040.24
1.5 2656.6 -1040.24 1.5 2768.63 -1040.24 1.5 2880.65 -1040.24 1.5
2992.68 -1040.24 1.5 3104.7 -1040.24 1.5 3216.73 -1040.24 1.5 3328.75
-1040.24 1.5 3440.78 -1040.24 1.5 3552.8 -1040.24 1.5 3664.83 -1040.24
1.5 3776.85 -1040.24 1.5 3888.88 -1040.24 1.5 4000.9 -1040.24 1.5
-1488.34 -960.217 1.5 -1600.36 -960.217 1.5 -1376.31 -960.217 1.5 -1264.29
-960.217 1.5 -1152.26 -960.217 1.5 -1040.24 -1000.23 1.5 -1040.24 -960.217
1.5 -984.223 -1000.23 1.5 -872.197 -1000.23 1.5 -900.204 -1000.23 1.5
-928.21 -1000.23 1.5 -760.172 -1000.23 1.5 -788.178 -1000.23 1.5 -816.185
-1000.23 1.5 -648.147 -1000.23 1.5 -676.153 -1000.23 1.5 -704.159 -1000.23
1.5 -536.121 -1000.23 1.5 -564.128 -1000.23 1.5 -592.134 -1000.23 1.5
-424.096 -1000.23 1.5 -452.102 -1000.23 1.5 -480.109 -1000.23 1.5 -312.071
-1000.23 1.5 -340.077 -1000.23 1.5 -368.083 -1000.23 1.5 -200.045 -1000.23
1.5 -228.052 -1000.23 1.5 -256.058 -1000.23 1.5 -88.0199 -1000.23 1.5
-116.026 -1000.23 1.5 -144.033 -1000.23 1.5 24.0054 -1000.23 1.5 -4.0009
-1000.23 1.5 -32.0072 -1000.23 1.5 136.031 -1000.23 1.5 108.024 -1000.23
1.5 80.0181 -1000.23 1.5 248.056 -1000.23 1.5 220.05 -1000.23 1.5
[...]
CELL_DATA 27370
FIELD attributes 2
k 1 27370 float
2.84681 0.940537 0.554697 0.45641 0.424383 0.407697 0.3972 0.392255 0.39112 0.391658 0.392174
0.391853 0.391127 0.390839 0.391177 0.391986 0.394013 0.397225 0.402098 0.408469 0.417013
0.42729 0.439056 0.451628 0.463867 0.474902 0.48314 0.488619 0.491761 0.493319 0.493932
0.494084 0.494001 0.493752 0.493447 0.493036 0.49256 0.492155 0.49183 0.491582 0.491392
0.491265 0.491133 0.491116 0.491089 0.491116 0.491108 0.491155 0.491111 0.490928 2.84687
0.940549 0.554649 0.456442 0.424321 0.407736 0.397187 0.392225 0.391075 0.391652 0.392171
0.391847 0.391123 0.390871 0.391245 0.392108 0.394165 0.397308 0.402196 0.408513 0.417092
0.427344 0.4391 0.451612 0.463811 0.474885 0.483134 0.488628 0.491805 0.493382 0.494005
0.494137 0.49404 0.493779 0.493455 0.493045 0.492598 0.492194 0.491884 0.491608 0.49139
0.491259 0.491175 0.491174 0.491145 0.491128 0.491093 0.491133 0.491107 0.49095 2.84675
0.940528 0.554666 0.456432 0.424412 0.40769 0.397183 0.392252 0.391126 0.391674 0.392171
0.39182 0.391089 0.3909 0.391271 0.392139 0.394198 0.39739 0.402262 0.408572 0.417158
0.427374 0.439173 0.451675 0.463966 0.474982 0.483182 0.488629 0.491773 0.493353 0.494018
0.494215 0.494162 0.493927 0.49359 0.493222 0.492809 0.492408 0.492082 0.491793 0.491621
0.491488 0.491406 0.491316 0.491242 0.49117 0.491094 0.491087 0.491101 0.490953 2.84688
0.940544 0.554495 0.456538 0.424095 0.407876 0.397118 0.392182 0.390963 0.391591 0.392093
0.391728 0.391109 0.391013 0.391443 0.392374 0.394572 0.397691 0.402678 0.408939 0.417566
0.427583 0.43933 0.451729 0.463814 0.475039 0.483298 0.488818 0.491963 0.493545 0.494191
0.494335 0.494218 0.493959 0.493609 0.493183 0.492716 0.492319 0.492027 0.491801 0.491637
0.491527 0.491457 0.491376 0.491302 0.491144 0.491038 0.49097 0.490949 0.490783 2.84672
0.940517 0.554667 0.456393 0.424443 0.407792 0.397087 0.392237 0.39111 0.391677 0.392085
0.391664 0.39106 0.391022 0.391441 0.392403 0.394595 0.397811 0.402753 0.408977 0.417631
0.427663 0.439444 0.451847 0.464165 0.475249 0.483505 0.489065 0.492205 0.493791 0.494439
0.49457 0.494434 0.494104 0.49369 0.493195 0.492704 0.492297 0.491976 0.491716 0.491586
0.491509 0.491436 0.491327 0.491237 0.491104 0.491021 0.490921 0.49088 0.490705 2.8463
0.940626 0.553619 0.45747 0.422787 0.408486 0.39719 0.392119 0.390596 0.391308 0.391726
0.391172 0.39069 0.390661 0.39136 0.392708 0.395544 0.398649 0.40407 0.410038 0.419092
0.428585 0.440794 0.452703 0.463641 0.475234 0.48389 0.489892 0.49321 0.494675 0.495273
0.495398 0.495192 0.494536 0.493854 0.493255 0.492686 0.492198 0.491845 0.491592 0.491436
0.491307 0.491206 0.491083 0.490964 0.490837 0.490727 0.490618 0.490573 0.490542 2.84714
0.940434 0.555223 0.456893 0.423021 0.411316 0.405209 0.405728 0.407976 0.411497 0.411676
0.409965 0.405702 0.401082 0.395976 0.394356 0.395132 0.398686 0.404125 0.411439 0.418675
0.429631 0.439403 0.451028 0.461802 0.473851 0.482278 0.488857 0.492585 0.494698 0.495613
0.495847 0.495608 0.494893 0.494167 0.493535 0.492867 0.492257 0.491873 0.491694 0.49171
0.491819 0.491995 0.492048 0.492042 0.491823 0.491643 0.49119 0.49103 0.490673 2.8473
0.939959 0.554592 0.459479 0.421762 0.241749 0.445595 0.588886 0.58563 0.572008 0.564899
0.56055 0.558328 0.55724 0.556196 0.55504 0.555624 0.55932 0.565704 0.576332 0.589107
0.605649 0.621743 0.622846 1.07678 0.623171 0.520735 0.502075 0.498197 0.496742 0.495711
0.49543 0.495065 0.494174 0.492824 0.491695 0.490883 0.490655 0.490769 0.490947 0.491224
0.491489 0.491731 0.491856 0.491868 0.491753 0.491646 0.491468 0.491385 0.490943 2.84703
0.94027 0.554005 0.457789 0.419015 0.274168 0.980537 1.01892 0.603791 0.512665 0.49704
0.493568 0.491638 0.490746 0.490901 0.491106 0.490527 0.488662 0.486949 0.486133 0.486284
0.486871 0.487398 0.487667 0.487714 0.487656 0.487655 0.487754 0.488013 0.488533 0.489149
0.489668 0.490319 2.84757 0.940007 0.554618 0.456956 0.419091 0.273853 0.969378 1.0158
0.602188 0.51208 0.496738 0.493111 0.491451 0.490921 0.491282 0.491539 0.490843 0.488709
0.486758 0.485868 0.486006 0.486634 0.487226 0.487568 0.487658 0.487633 0.487615 0.487698
0.487907 0.488397 0.488811 0.489322 0.490141 2.84778 0.940008 0.554856 0.456402 0.41907
0.273816 0.968152 1.01494 0.602029 0.512151 0.49704 0.493473 0.491964 0.4916 0.491954
0.492009 0.491053 0.488747 0.486787 0.485783 0.485868 0.486413 0.487005 0.487399 0.487614
0.487717 0.487852 0.488012 0.488301 0.488715 0.489232 0.489632 0.490264 2.84795 0.94001
0.554797 0.456378 0.418994 0.273725 0.967291 1.01441 0.601672 0.512107 0.497026 0.49341
0.492007 0.491719 0.492105 0.492146 0.491162 0.488857 0.486908 0.485901 0.485985 0.486521
0.487103 0.487476 0.487706 0.487806 0.487957 0.488134 0.488463 0.488826 0.489354 0.489775
0.490368 2.84799 0.940022 0.55481 0.456369 0.41891 0.273607 0.966976 1.01424 0.601687
0.512162 0.497212 0.493703 0.492309 0.492014 0.492342 0.492263 0.491058 0.488661 0.486689
0.485615 0.485651 0.486175 0.486782 0.487192 0.487462 0.487633 0.487816 0.488039 0.488396
0.488744 0.489319 0.489641 0.49024 2.84807 0.940024 0.554759 0.456382 0.418765 0.273571
0.965407 1.01281 0.600438 0.510965 0.49589 0.492489 0.491458 0.491407 0.491979 0.492074
0.491146 0.488941 0.487031 0.486018 0.486088 0.486556 0.487075 0.487413 0.487599 0.487733
0.487912 0.488115 0.488441 0.488796 0.489361 0.489674 0.490319 2.84801 0.940011 0.55474
0.45636 0.418612 0.2735 0.963017 1.00865 0.599222 0.510216 0.495034 0.492006 0.491479
0.491631 0.492478 0.492664 0.491723 0.489326 0.487308 0.486079 0.486013 0.486336 0.486831
0.487194 0.487421 0.487593 0.487756 0.487987 0.48831 0.488703 0.489254 0.489607 0.490314
2.84795 0.939987 0.55468 0.456344 0.418484 0.273342 0.987968 1.0384 0.615313 0.523255
0.507986 0.503988 0.501768 0.500503 0.499908 0.498568 0.495651 0.492136 0.489316 0.48742
0.486675 0.48672 0.486991 0.487267 0.487443 0.487608 0.487734 0.48798 0.488323 0.488712
0.48929 0.489639 0.490328 2.84791 0.939966 0.554618 0.456354 0.418343 0.273204 0.243548
1.00653 0.99448 0.586383 0.494996 0.477355 0.471998 0.470441 0.470368 0.471128 0.47211
0.472942 0.473904 0.475079 0.477481 0.480349 0.482838 0.484757 0.486047 0.486804 0.487258
0.487549 0.487833 0.488217 0.488625 0.489228 0.489552 0.490278 2.84787 0.939944 0.554538
0.456371 0.418191 0.273093 0.811903 0.88207 0.530529 0.449273 0.43085 0.429218 0.430573
0.43315 0.43829 0.444357 0.450208 0.456118 0.462465 0.468597 0.474155 0.478728 0.482161
0.48445 0.485863 0.486699 0.48725 0.487685 0.488178 0.488617 0.489281 0.489641 0.490381
2.84786 0.939931 0.554441 0.456391 0.41808 0.272966 0.648534 0.833184 0.52279 0.461978
0.452904 0.453681 0.457067 0.463297 0.468586 0.471486 0.47273 0.473352 0.47404 0.475285
0.47726 0.479572 0.481889 0.483858 0.485307 0.48623 0.486892 0.487422 0.488071 0.488622
0.489349 0.489728 0.490348 2.84788 0.939923 0.554403 0.456321 0.418001 0.272848 1.30057
1.22429 0.697779 0.570321 0.544747 0.543579 0.542604 0.539916 0.535878 0.530863 0.5236
0.513912 0.503801 0.495088 0.489153 0.485886 0.484661 0.484633 0.485304 0.486169 0.486981
0.487678 0.488415 0.488974 0.489643 0.49 0.490475 2.84788 0.939925 0.55436 0.456334
0.417945 0.272862 0.13124 0.664781 0.901902 0.55594 0.487538 0.47975 0.480562 0.483106
0.487904 0.492474 0.495163 0.495519 0.493913 0.491302 0.489492 0.488518 0.488122 0.487984
0.48786 0.487733 0.487686 0.487717 0.487904 0.488329 0.488789 0.489447 0.489786 0.490385
2.84791 0.939934 0.55437 0.456336 0.417911 0.272888 0.822743 0.914449 0.547569 0.460028
0.440578 0.436484 0.435542 0.437041 0.443454 0.450563 0.456517 0.462184 0.467927 0.473079
0.477513 0.481061 0.48371 0.485435 0.486448 0.486989 0.48738 0.487747 0.488223 0.488676
0.489341 0.489684 0.490362 2.84795 0.93993 0.554425 0.456317 0.417965 0.272882 0.977127
1.03209 0.603535 0.504774 0.480558 0.475498 0.473013 0.471434 0.471031 0.470394 0.469724
0.46973 0.47033 0.472494 0.476289 0.479924 0.483019 0.485235 0.486626 0.487349 0.487706
0.487932 0.488336 0.488775 0.489398 0.489687 0.490322 2.84799 0.939949 0.554489 0.456378
0.418057 0.272985 0.85584 0.973129 0.593249 0.516738 0.506531 0.503878 0.502608 0.501718
0.500589 0.497695 0.492538 0.487466 0.484132 0.482701 0.482583 0.483577 0.485224 0.486465
0.487303 0.487775 0.488011 0.488191 0.488459 0.48878 0.489359 0.489692 0.490346 2.84801
0.939982 0.554543 0.456404 0.418209 0.273112 0.879932 0.95812 0.571782 0.493468 0.4822
0.48187 0.483373 0.486196 0.489028 0.490773 0.491101 0.490081 0.488281 0.48708 0.48652
0.486402 0.486479 0.486736 0.48701 0.487228 0.487438 0.487723 0.488123 0.488581 0.489222
0.489594 0.490288 2.84808 0.94 0.554652 0.456345 0.418392 0.273223 0.94133 0.994397
0.590314 0.502942 0.488241 0.485469 0.485024 0.485266 0.486584 0.487561 0.487576 0.486684
0.485201 0.484732 0.484885 0.485333 0.485936 0.48644 0.4868 0.487077 0.487363 0.487731
0.488218 0.488684 0.489286 0.489635 0.490286 2.84813 0.940014 0.554678 0.456364 0.418572
0.27333 0.965961 1.01059 0.600539 0.511803 0.497372 0.494218 0.492983 0.492456 0.49256
0.492332 0.491062 0.488755 0.486833 0.485709 0.485706 0.486049 0.486554 0.486929 0.487156
0.487334 0.487551 0.487805 0.488221 0.488678 0.489283 0.489627 0.49026 2.84802 0.940015
0.554711 0.456432 0.418728 0.27342 0.969836 1.01092 0.599781 0.510414 0.495526 0.492334
0.491326 0.491283 0.49191 0.492134 0.491375 0.489284 0.487354 0.486287 0.486326 0.48669
0.487139 0.487461 0.487641 0.487741 0.48787 0.488074 0.488396 0.488773 0.489323 0.489704
0.490326 2.84796 0.939998 0.554722 0.456416 0.418892 0.273422 0.972058 1.01218 0.600698
0.511599 0.496806 0.493238 0.491883 0.491628 0.492064 0.492129 0.491185 0.488959 0.487016
0.485951 0.486001 0.486448 0.486952 0.487284 0.487503 0.487609 0.487766 0.487981 0.488311
0.488686 0.489239 0.489608 0.490298 2.84778 0.939994 0.554809 0.456437 0.418986 0.273599
0.972986 1.01287 0.600909 0.511368 0.496355 0.492849 0.491465 0.491223 0.491723 0.491918
0.491133 0.488997 0.487056 0.486072 0.486174 0.486686 0.487201 0.487511 0.487705 0.487784
0.487913 0.488062 0.488335 0.488711 0.489203 0.489618 0.490289 2.84755 0.939994 0.554593
0.456994 0.419046 0.273654 0.974883 1.01428 0.601544 0.511777 0.496634 0.492984 0.491308
0.490781 0.491141 0.491388 0.490704 0.488609 0.486652 0.48573 0.485862 0.486464 0.487053
0.487396 0.487488 0.487467 0.487455 0.487549 0.487779 0.488275 0.488739 0.489263 0.490114
2.84702 0.940272 0.553933 0.457854 0.419004 0.274541 0.976195 1.01771 0.603203 0.512254
0.496676 0.493195 0.491312 0.490497 0.490715 0.491012 0.490514 0.488752 0.48706 0.486279
0.486454 0.487037 0.487524 0.487754 0.487764 0.48768 0.487667 0.487763 0.488032 0.488512
0.489123 0.489594 0.490286 2.84735 0.939967 0.554563 0.459517 0.42178 0.240929 0.589009
0.697755 0.674565 0.663567 0.65373 0.646707 0.643863 0.643201 0.644353 0.648822 0.654999
0.663069 0.673717 0.688614 0.704067 0.721719 0.745192 0.983612 1.07621 0.622925 0.520569
0.501979 0.498121 0.496673 0.495657 0.49537 0.494975 0.494047 0.492679 0.491547 0.490725
0.490489 0.490604 0.490779 0.49106 0.491298 0.491542 0.491672 0.491738 0.491686 0.491537
0.491405 0.491308 0.490881 2.84715 0.940406 0.555316 0.456838 0.422994 0.411458 0.405791
0.406633 0.409375 0.412838 0.413235 0.411715 0.407316 0.402507 0.396246 0.394713 0.395235
0.39863 0.403926 0.411179 0.418359 0.429401 0.439304 0.451074 0.461918 0.473812 0.482162
0.488668 0.492349 0.494485 0.495427 0.495693 0.495488 0.494805 0.494105 0.493495 0.492849
0.492238 0.491852 0.491663 0.49168 0.491781 0.49196 0.491998 0.492001 0.491804 0.491626
0.491197 0.49104 0.490667 2.84622 0.940603 0.553639 0.457545 0.422698 0.408484 0.397179
0.392123 0.390717 0.391515 0.391746 0.391527 0.390758 0.390982 0.391628 0.39327 0.395745
0.399123 0.40439 0.410489 0.419367 0.428855 0.441005 0.452878 0.463789 0.47532 0.483931
0.489924 0.493233 0.494686 0.495254 0.495367 0.495171 0.494522 0.493813 0.493221 0.492645
0.492153 0.491778 0.491507 0.491332 0.491203 0.49111 0.491006 0.490898 0.490766 0.490669
0.490565 0.490529 0.490495 2.84665 0.940495 0.554668 0.456419 0.42447 0.407807 0.397049
0.392298 0.39125 0.391793 0.392217 0.391759 0.391264 0.391255 0.391716 0.392709 0.394911
0.398056 0.403081 0.409221 0.417885 0.427796 0.439594 0.451944 0.464234 0.475241 0.483446
0.489006 0.492163 0.493755 0.494388 0.49451 0.494379 0.494071 0.493654 0.493183 0.492697
0.492274 0.491953 0.491717 0.491586 0.491495 0.491418 0.491311 0.491229 0.491107 0.491001
0.490865 0.490805 0.490649 2.84677 0.940519 0.554484 0.456589 0.424101 0.407875 0.397088
0.392242 0.391074 0.391698 0.392206 0.391804 0.391339 0.391245 0.391721 0.392682 0.3949
0.397944 0.402991 0.409161 0.4178 0.427739 0.439481 0.451817 0.463876 0.475069 0.483323
0.488854 0.49199 0.49355 0.49417 0.494299 0.494169 0.493904 0.493561 0.49313 0.492658
0.492282 0.491975 0.491711 0.491521 0.491405 0.491341 0.49128 0.491187 0.491084 0.491013
0.490943 0.490918 0.49079 2.84664 0.940502 0.55466 0.456465 0.424455 0.40767 0.397162
0.392319 0.391249 0.391768 0.39229 0.391887 0.391318 0.391117 0.391538 0.392414 0.394514
0.397614 0.402565 0.408799 0.417408 0.427533 0.439305 0.45175 0.464022 0.474998 0.483183
0.48862 0.491759 0.493337 0.493998 0.494172 0.494087 0.493873 0.493589 0.493208 0.492754
0.492343 0.492066 0.491809 0.491622 0.491466 0.491382 0.491294 0.491225 0.491169 0.491067
0.491073 0.491071 0.490927 2.84675 0.94052 0.554648 0.456459 0.424374 0.40772 0.397156
0.392287 0.391204 0.391759 0.392277 0.391923 0.391343 0.391095 0.39151 0.392363 0.394474
0.397547 0.40249 0.408721 0.417307 0.427468 0.43923 0.451718 0.463903 0.474926 0.483145
0.488609 0.491776 0.493353 0.493977 0.494118 0.494027 0.493782 0.493463 0.493036 0.49256
0.492144 0.491849 0.491591 0.491439 0.491328 0.491248 0.491204 0.49115 0.491144 0.491068
0.491101 0.491112 0.490976 2.8467 0.940508 0.554697 0.456427 0.424434 0.407699 0.397155
0.392308 0.391265 0.39177 0.39227 0.391941 0.391352 0.391044 0.391414 0.392245 0.394363
0.39746 0.402362 0.408635 0.417211 0.427439 0.439207 0.451704 0.463917 0.474918 0.483148
0.488607 0.491743 0.493308 0.493906 0.494036 0.493954 0.493699 0.493356 0.492911 0.492488
0.492121 0.49182 0.491561 0.491371 0.491267 0.491155 0.49112 0.49109 0.491106 0.491083
0.491131 0.491123 0.490965 0.142282 0.142646 0.116836 0.162724 0.323941 0.213804 0.0645569
1.3433 0.796298 0.183639 0.047124 0.0950531 0.186041 0.165536 0.264075 0.401149 0.194066
0.682171 0.122791 0.714723 0.318773 0.209562 0.500972 0.457501 0.145405 1.35073 0.347351
0.0387389 0.0288782 2.58503 2.53021 2.55743 2.53462 0.863709 0.303968 2.03223 0.835046
1.71048 1.6522 1.22206 1.09579 1.97615 0.341068 0.234191 1.49468 0.446457 1.26425
1.09942 1.35624 0.755491 0.449708 1.1363 0.470911 0.279166 0.0521033 0.179967 0.118744
0.0550576 0.538642 0.592769 1.06789 0.404813 0.662863 1.07956 1.06311 0.737585 1.47135
1.37557 0.193364 0.638311 0.552699 0.408094 0.65929 0.0807083 0.483151 0.273407 1.41198
0.61216 0.157862 0.378919 0.380418 0.411357 0.711559 0.672254 0.292533 0.362307 0.277263
1.15465 1.81997 1.65764 2.09326 1.00438 0.108901 1.19801 0.523271 0.834148 0.465145
0.429579 0.149344 0.438146 0.342923 0.207258 0.459961 1.52 2.67885 2.58418 0.84596
0.299871 0.423805 0.750229 0.761322 0.870699 0.881703 0.352738 0.909421 1.56977 0.781997
0.195797 0.237913 0.573494 0.932374 0.259012 0.489932 0.258717 0.193404 0.771223 0.250756
0.869838 1.30704 2.29361 2.06849 2.24328 1.78485 1.11524 1.5319 2.1494 0.476737
0.119752 0.368923 0.464846 0.588749 0.444881 0.527191 0.980028 2.27254 2.09728 2.00374
0.0669162 0.0600504 2.82596 1.62296 1.13723 2.88558 0.876175 0.238747 0.184956 0.279915
2.18565 1.20317 1.06707 2.41972 1.53575 1.03372 1.00859 1.20436 1.40746 1.47987
1.24573 0.268743 0.10786 2.88605 1.08578 1.19105 2.58703 2.49321 0.998284 2.46213
1.16654 2.26117 0.683467 2.4987 0.872419 0.322048 0.467134 2.54636 0.604931 0.633722
2.50858 1.1412 0.39233 1.01379 0.513378 2.32575 0.865209 1.48443 0.715837 2.22482
0.839307 1.51093 0.71078 0.417076 0.173928 0.772024 0.32664 0.108176 0.717741 0.702128
0.375494 0.533631 0.45821 0.464715 0.411439 1.78953 0.13292 0.311168 0.0818376 0.586272
1.16739 0.225768 2.36158 0.941448 0.883801 2.232 0.570758 0.53913 0.535889 0.364175
0.279345 0.28872 0.792436 0.554545 0.587118 1.06394 1.14186 0.0784984 0.16774 1.86934
0.0755113 0.577898 0.764018 0.497543 0.431137 0.058655 2.74603 0.493495 2.61873 0.421458
0.217329 0.0842911 0.441724 0.467572 0.254711 0.67719 1.95402 0.641767 1.96819 0.268506
0.133136 0.84085 0.565183 0.477383 0.864591 0.149421 1.61701 1.82781 1.87693 2.07999
0.35215 0.0834922 0.187039 0.415543 0.972054 0.784721 0.419254 1.06905 1.23686 1.65781
1.14396 2.33604 2.27395 0.498258 0.525118 0.246347 0.798026 0.171137 0.338388 2.35882
2.36707 0.208157 0.2634 0.298253 0.236653 0.791059 0.222453 0.540366 0.923611 0.444183
0.776125 1.04314 1.30947 1.85582 0.534965 0.151903 0.471018 1.81633 2.66439 1.03904
2.1173 0.284887 0.442529 0.391215 2.35372 1.26923 0.70253 0.197695 0.457232 0.458383
0.618582 0.45899 1.38864 0.568781 1.07946 1.19217 1.28572 2.46019 1.05781 2.52577
2.61625 1.14113 2.28251 0.245338 0.345597 3.34532 2.19501 1.48784 1.14112 1.11704
1.67881 1.57428 2.31159 2.20895 1.13712 2.53237 0.220435 0.876652 0.0692305 0.0327599
0.150463 0.577172 0.0345865 0.447201 0.0478424 0.0985233 0.13283 2.33064 1.30885 2.11602
1.12041 2.52252 0.708376 2.53201 0.676215 0.35558 0.20782 0.522752 0.801811 0.431507
0.264079 1.17678 0.786138 0.42582 1.6612 0.42448 1.96678 2.07038 1.14779 2.24037
0.87057 0.494953 0.791786 1.64699 0.266279 0.605505 0.696284 1.19532 0.891691 1.36325
0.197012 0.122063 0.65108 0.42248 0.207658 0.688195 0.550763 1.03486 0.041516 0.179319
0.934176 1.02788 1.37265 0.721532 0.22345 0.875868 0.286696 0.617668 0.714877 0.170464
0.532531 1.29829 3.08234 3.13477 2.49634 3.13694 2.24925 1.72371 1.17789 2.47621
3.11038 3.19921 1.88153 2.43173 0.289636 0.0727619 0.272105 0.0402578 0.18698 0.114591
2.33321 1.16234 0.861683 2.36131 2.30604 1.44606 1.0551 0.213577 0.178363 0.118356
0.620656 0.304185 0.686503 0.282337 0.121063 0.207295 0.315885 2.30734 0.936662 2.36352
0.66231 2.28593 0.526352 2.23043 0.615402 1.7616 1.79657 0.785267 1.25201 1.37928
0.433838 1.45766 2.46662 1.76784 2.53837 0.889107 1.08833 1.61582 0.695882 1.40364
1.8568 1.16414 1.49287 2.02423 1.10732 2.23479 0.41136 2.02709 0.41042 1.14894
0.211754 0.378671 1.31567 1.45797 1.70277 1.61358 1.53054 0.122275 0.117925 0.0593999
0.95195 0.286056 0.602056 0.661334 1.7988 0.583847 0.991797 0.186913 0.593653 0.277541
0.436158 0.180633 0.363623 1.11806 0.508087 1.36172 0.519143 0.968537 0.966113 1.06693
1.03283 0.78771 0.809224 0.622098 0.148751 0.257553 0.484701 0.19463 0.467682 2.09366
1.09098 1.79785 2.31611 0.181202 0.463995 0.698163 0.70747 0.119132 0.210861 0.418634
0.805341 1.54841 0.978657 0.250713 0.945692 1.20762 0.327398 0.198481 1.0063 1.54866
1.24054 0.567209 0.622849 0.581337 0.33559 0.33559 1.40294 2.47759 2.11403 0.975874
0.517381 0.333992 0.714191 0.651094 2.15332 0.700438 0.912492 0.272601 0.0758361 1.13986
1.48029 0.444725 0.364807 0.536553 1.51873 0.298756 0.279461 0.0269222 0.0645662 1.59951
0.48583 0.321097 0.263964 0.267155 0.282816 0.636686 0.519809 0.24375 0.510529 0.80153
0.524183 0.124889 1.5757 0.438182 0.937632 1.10126 0.111347 0.481781 0.154057 0.355154
0.461499 1.05465 1.18817 0.975764 1.32001 0.731122 1.88312 0.574824 1.15676 0.397144
0.679247 1.23524 0.948782 0.897102 1.0417 0.839121 1.1955 1.04988 0.865213 0.817908
1.43702 0.385063 0.143801 0.379339 0.341121 0.145561 0.120197 0.782234 1.52289 0.876638
1.08434 0.803512 0.241113 0.917143 2.18473 2.43681 2.40897 2.07169 0.845522 0.987356
0.225488 2.07927 1.42295 0.283705 1.10813 0.649388 1.688 1.26778 0.140292 0.231172
1.19987 2.48505 2.57474 1.23456 2.4429 1.06133 2.02337 1.22453 2.64159 2.21274
2.5152 1.49118 0.0763602 0.278239 0.755772 1.36384 0.3284 0.423508 0.129385 0.410093
0.630676 0.453286 3.18415 1.02386 1.41312 2.71167 0.958909 0.972189 2.10645 2.47513
2.43312 1.21146 1.70281 0.0922988 0.14571 0.601206 0.245097 0.730249 1.35706 0.849405