# vtk DataFile Version 2.0
sampleSurface
ASCII
DATASET POLYDATA
POINTS 10295 float
-1324.23 -1350.14 10 -1423.91 -1350.14 10 -1423.91 -1421.2 10 -1324.23 -1421.2
10 -1224.56 -1350.14 10 -1224.56 -1421.2 10 -1124.89 -1350.14 10
-1124.89 -1421.2 10 -1025.21 -1350.14 10 -1025.21 -1421.2 10 -925.54
-1350.14 10 -925.54 -1421.2 10 -825.867 -1350.14 10 -825.867 -1421.2
10 -726.193 -1350.14 10 -726.193 -1421.2 10 -626.52 -1350.14 10
-626.52 -1421.2 10 -526.846 -1350.14 10 -526.846 -1421.2 10 -427.173
-1350.14 10 -427.173 -1421.2 10 -327.499 -1350.14 10 -327.499 -1421.2
10 -227.826 -1350.14 10 -227.826 -1421.2 10 -128.152 -1350.14 10
-128.152 -1421.2 10 -28.4785 -1350.14 10 -28.4785 -1421.2 10 71.195
-1350.14 10 71.195 -1421.2 10 170.869 -1350.14 10 170.869 -1421.2
10 270.542 -1350.14 10 270.542 -1421.2 10 370.216 -1350.14 10
370.216 -1421.2 10 469.889 -1350.14 10 469.889 -1421.2 10 569.563
-1350.14 10 569.563 -1421.2 10 669.237 -1350.14 10 669.237 -1421.2
10 768.91 -1350.14 10 768.91 -1421.2 10 868.584 -1350.14 10
868.584 -1421.2 10 968.257 -1350.14 10 968.257 -1421.2 10 1067.93
-1350.14 10 1067.93 -1421.2 10 1167.6 -1350.14 10 1167.6 -1421.2
10 1267.28 -1350.14 10 1267.28 -1421.2 10 1366.95 -1350.14 10
1366.95 -1421.2 10 1466.63 -1350.14 10 1466.63 -1421.2 10 1566.3
-1350.14 10 1566.3 -1421.2 10 1665.97 -1350.14 10 1665.97 -1421.2
10 1765.65 -1350.14 10 1765.65 -1421.2 10 1865.32 -1350.14 10
1865.32 -1421.2 10 1964.99 -1350.14 10 1964.99 -1421.2 10 2064.67
-1350.14 10 2064.67 -1421.2 10 2164.34 -1350.14 10 2164.34 -1421.2
10 2264.01 -1350.14 10 2264.01 -1421.2 10 2363.69 -1350.14 10
2363.69 -1421.2 10 2463.36 -1350.14 10 2463.36 -1421.2 10 2563.03
-1350.14 10 2563.03 -1421.2 10 2662.71 -1350.14 10 2662.71 -1421.2
10 2762.38 -1350.14 10 2762.38 -1421.2 10 2862.06 -1350.14 10
2862.06 -1421.2 10 2961.73 -1350.14 10 2961.73 -1421.2 10 3061.4
-1350.14 10 3061.4 -1421.2 10 3161.08 -1350.14 10 3161.08 -1421.2
10 3260.75 -1350.14 10 3260.75 -1421.2 10 3360.42 -1350.14 10
3360.42 -1421.2 10 3460.1 -1350.14 10 3460.1 -1421.2 10 3559.77
-1421.2 10 3559.77 -1350.14 10 -1324.23 -1279.08 10 -1423.91 -1279.08
10 -1224.56 -1279.08 10 -1124.89 -1279.08 10 -1025.21 -1279.08 10
-925.54 -1279.08 10 -825.867 -1279.08 10 -726.193 -1279.08 10 -626.52
-1279.08 10 -526.846 -1279.08 10 -427.173 -1279.08 10 -327.499 -1279.08
10 -227.826 -1279.08 10 -128.152 -1279.08 10 -28.4786 -1279.08 10
71.195 -1279.08 10 170.869 -1279.08 10 270.542 -1279.08 10 370.216
-1279.08 10 469.889 -1279.08 10 569.563 -1279.08 10 669.237 -1279.08
10 768.91 -1279.08 10 868.584 -1279.08 10 968.257 -1279.08 10
1067.93 -1279.08 10 1167.6 -1279.08 10 1267.28 -1279.08 10 1366.95
-1279.08 10 1466.63 -1279.08 10 1566.3 -1279.08 10 1665.97 -1279.08
10 1765.65 -1279.08 10 1865.32 -1279.08 10 1964.99 -1279.08 10
2064.67 -1279.08 10 2164.34 -1279.08 10 2264.01 -1279.08 10 2363.69
-1279.08 10 2463.36 -1279.08 10 2563.03 -1279.08 10 2662.71 -1279.08
10 2762.38 -1279.08 10 2862.06 -1279.08 10 2961.73 -1279.08 10
3061.4 -1279.08 10 3161.08 -1279.08 10 3260.75 -1279.08 10 3360.42
-1279.08 10 3460.1 -1279.08 10 3559.77 -1279.08 10 -1324.23 -1208.02
10 -1423.91 -1208.02 10 -1224.56 -1208.02 10 -1124.89 -1208.02 10
-1025.21 -1208.02 10 -925.54 -1208.02 10 -825.867 -1208.02 10 -726.193
-1208.02 10 -626.52 -1208.02 10 -526.846 -1208.02 10 -427.173 -1208.02
10 -327.499 -1208.02 10 -227.826 -1208.02 10 -128.152 -1208.02 10
-28.4787 -1208.02 10 71.1949 -1208.02 10 170.868 -1208.02 10 270.542
-1208.02 10 370.216 -1208.02 10 469.889 -1208.02 10 569.563 -1208.02
10 669.236 -1208.02 10 768.91 -1208.02 10 868.584 -1208.02 10
968.257 -1208.02 10 1067.93 -1208.02 10 1167.6 -1208.02 10 1267.28
-1208.02 10 1366.95 -1208.02 10 1466.63 -1208.02 10 1566.3 -1208.02
10 1665.97 -1208.02 10 1765.65 -1208.02 10 1865.32 -1208.02 10
1964.99 -1208.02 10 2064.67 -1208.02 10 2164.34 -1208.02 10 2264.01
-1208.02 10 2363.69 -1208.02 10 2463.36 -1208.02 10 2563.03 -1208.02
10 2662.71 -1208.02 10 2762.38 -1208.02 10 2862.06 -1208.02 10
2961.73 -1208.02 10 3061.4 -1208.02 10 3161.08 -1208.02 10 3260.75
-1208.02 10 3360.42 -1208.02 10 3460.1 -1208.02 10 3559.77 -1208.02
10 -1324.23 -1136.96 10 -1423.91 -1136.96 10 -1224.56 -1136.96 10
-1124.89 -1136.96 10 -1025.21 -1136.96 10 -925.54 -1136.96 10 -825.867
-1136.96 10 -726.193 -1136.96 10 -626.52 -1136.96 10 -526.846 -1136.96
10 -427.173 -1136.96 10 -327.499 -1136.96 10 -227.826 -1136.96 10
-128.152 -1136.96 10 -28.4788 -1136.96 10 71.1948 -1136.96 10 170.868
-1136.96 10 270.542 -1136.96 10 370.216 -1136.96 10 469.889 -1136.96
10 569.563 -1136.96 10 669.236 -1136.96 10 768.91 -1136.96 10
868.584 -1136.96 10 968.257 -1136.96 10 1067.93 -1136.96 10 1167.6
-1136.96 10 1267.28 -1136.96 10 1366.95 -1136.96 10 1466.63 -1136.96
10 1566.3 -1136.96 10 1665.97 -1136.96 10 1765.65 -1136.96 10
1865.32 -1136.96 10 1964.99 -1136.96 10 2064.67 -1136.96 10 2164.34
-1136.96 10 2264.01 -1136.96 10 2363.69 -1136.96 10 2463.36 -1136.96
10 2563.03 -1136.96 10 2662.71 -1136.96 10 2762.38 -1136.96 10
2862.06 -1136.96 10 2961.73 -1136.96 10 3061.4 -1136.96 10 3161.08
-1136.96 10 3260.75 -1136.96 10 3360.42 -1136.96 10 3460.1 -1136.96
10 3559.77 -1136.96 10 -1324.23 -1065.9 10 -1423.91 -1065.9 10
-1224.56 -1065.9 10 -1124.89 -1065.9 10 -1025.21 -1065.9 10 -925.54
-1065.9 10 -825.867 -1065.9 10 -726.193 -1065.9 10 -626.52 -1065.9
10 -526.846 -1065.9 10 -427.173 -1065.9 10 -327.499 -1065.9 10
-227.826 -1065.9 10 -128.152 -1065.9 10 -28.4789 -1065.9 10 71.1946
-1065.9 10 170.868 -1065.9 10 270.542 -1065.9 10 370.215 -1065.9
10 469.889 -1065.9 10 569.563 -1065.9 10 669.236 -1065.9 10
768.91 -1065.9 10 868.584 -1065.9 10 968.257 -1065.9 10 1067.93
-1065.9 10 1167.6 -1065.9 10 1267.28 -1065.9 10 1366.95 -1065.9
10 1466.63 -1065.9 10 1566.3 -1065.9 10 1665.97 -1065.9 10
1765.65 -1065.9 10 1865.32 -1065.9 10 1964.99 -1065.9 10 2064.67
-1065.9 10 2164.34 -1065.9 10 2264.01 -1065.9 10 2363.69 -1065.9
10 2463.36 -1065.9 10 2563.03 -1065.9 10 2662.71 -1065.9 10
2762.38 -1065.9 10 2862.06 -1065.9 10 2961.73 -1065.9 10 3061.4
-1065.9 10 3161.08 -1065.9 10 3260.75 -1065.9 10 3360.42 -1065.9
10 3460.1 -1065.9 10 3559.77 -1065.9 10 -1324.23 -994.838 10
-1423.91 -994.838 10 -1224.56 -994.838 10 -1124.89 -994.838 10 -1025.21
-994.838 10 -925.54 -994.838 10 -825.867 -994.839 10 -726.193 -994.838
10 -626.52 -994.838 10 -526.846 -994.838 10 -427.173 -994.838 10
-327.499 -994.838 10 -227.826 -994.837 10 -128.152 -994.837 10 -28.479
-994.837 10 71.1944 -994.837 10 170.868 -994.837 10 270.542 -994.837
10 370.215 -994.838 10 469.889 -994.838 10 569.563 -994.838 10
669.237 -994.838 10 768.91 -994.838 10 868.584 -994.839 10 968.257
-994.839 10 1067.93 -994.839 10 1167.6 -994.839 10 1267.28 -994.839
10 1366.95 -994.839 10 1466.63 -994.839 10 1566.3 -994.839 10
1665.97 -994.839 10 1765.65 -994.839 10 1865.32 -994.839 10 1964.99
-994.839 10 2064.67 -994.839 10 2164.34 -994.839 10 2264.01 -994.839
10 2363.69 -994.839 10 2463.36 -994.839 10 2563.03 -994.839 10
2662.71 -994.839 10 2762.38 -994.839 10 2862.06 -994.839 10 2961.73
-994.839 10 3061.4 -994.839 10 3161.08 -994.839 10 3260.75 -994.839
10 3360.42 -994.839 10 3460.1 -994.839 10 3559.77 -994.839 10
-1324.23 -923.778 10 -1423.91 -923.778 10 -1224.56 -923.778 10 -1124.89
-923.778 10 -1025.21 -923.779 10 -925.54 -923.779 10 -825.867 -923.779
10 -875.703 -923.779 10 -726.193 -923.779 10 -776.03 -923.779 10
-626.52 -923.779 10 -676.356 -923.779 10 -526.846 -923.778 10 -576.683
-923.779 10 -427.172 -923.778 10 -477.009 -923.778 10 -327.499 -923.778
10 -377.336 -923.778 10 -227.826 -923.777 10 -277.662 -923.778 10
-128.152 -923.776 10 -177.989 -923.777 10 -28.4791 -923.776 10 -78.3158
-923.776 10 71.1943 -923.776 10 21.3576 -923.776 10 170.868 -923.776
10 121.031 -923.776 10 270.542 -923.777 10 220.705 -923.777 10
370.215 -923.778 10 320.379 -923.778 10 469.889 -923.778 10 420.052
-923.778 10 569.563 -923.778 10 519.726 -923.778 10 669.237 -923.779
10 619.4 -923.779 10 768.91 -923.779 10 719.073 -923.779 10
868.584 -923.779 10 818.747 -923.779 10 968.257 -923.779 10 1067.93
-923.779 10 1167.6 -923.779 10 1267.28 -923.779 10 1366.95 -923.779
10 1466.63 -923.779 10 1566.3 -923.779 10 1665.97 -923.779 10
1765.65 -923.779 10 1865.32 -923.779 10 1964.99 -923.779 10 2064.67
-923.779 10 2164.34 -923.779 10 2264.01 -923.779 10 2363.69 -923.779
10 2463.36 -923.779 10 2563.03 -923.779 10 2662.71 -923.779 10
2762.38 -923.779 10 2862.06 -923.779 10 2961.73 -923.779 10 3061.4
-923.779 10 3161.08 -923.779 10 3260.75 -923.779 10 3360.42 -923.779
10 3460.1 -923.779 10 3559.77 -923.779 10 -1324.23 -852.718 10
-1423.91 -852.718 10 -1224.56 -852.718 10 -1124.89 -852.719 10 -1025.21
-852.719 10 -925.54 -888.249 10 -925.54 -852.719 10 -875.703 -888.249
10 -776.03 -888.249 10 -825.867 -888.249 10 -676.356 -888.249 10
-726.193 -888.249 10 -576.683 -888.249 10 -626.52 -888.249 10 -477.009
-888.249 10 -526.846 -888.249 10 -377.336 -888.249 10 -427.172 -888.249
10 -277.662 -888.249 10 -327.499 -888.249 10 -177.989 -888.249 10
-227.825 -888.249 10 -78.3152 -888.248 10 -128.152 -888.248 10 21.3583
-888.248 10 -28.4785 -888.248 10 121.032 -888.248 10 71.195 -888.248
10 220.706 -888.249 10 170.869 -888.248 10 320.379 -888.249 10
270.543 -888.249 10 420.053 -888.249 10 370.216 -888.249 10 519.726
-888.249 10 469.889 -888.249 10 619.4 -888.249 10 569.563 -888.249
10 719.074 -888.249 10 669.237 -888.249 10 818.747 -888.249 10
768.91 -888.249 10 968.257 -852.719 10 918.421 -852.719 10 868.584
-852.719 10 868.584 -888.249 10 1067.93 -852.719 10 1167.6 -852.719
10 1267.28 -852.719 10 1366.95 -852.719 10 1466.62 -852.719 10
1566.3 -852.719 10 1665.97 -852.719 10 1765.65 -852.719 10 1865.32
-852.719 10 1964.99 -852.719 10 2064.67 -852.719 10 2164.34 -852.719
10 2264.01 -852.719 10 2363.69 -852.719 10 2463.36 -852.719 10
2563.03 -852.719 10 2662.71 -852.719 10 2762.38 -852.719 10 2862.06
-852.719 10 2961.73 -852.719 10 3061.4 -852.719 10 3161.08 -852.719
10 3260.75 -852.719 10 3360.42 -852.719 10 3460.1 -852.719 10
[...]
CELL_DATA 9650
FIELD attributes 2
k 1 9650 float
4.2421 2.60745 2.28548 2.16264 2.09862 2.05318 2.01872 1.99395 1.97599 1.96241 1.94911
1.93355 1.91332 1.89175 1.87164 1.85869 1.85128 1.849 1.84926 1.85084 1.85258
1.85525 1.85956 1.87025 1.89299 1.92839 1.97698 2.03467 2.10137 2.17215 2.24136
2.30266 2.3517 2.38721 2.41039 2.42367 2.4302 2.4326 2.43275 2.43149 2.42875
2.42597 2.42366 2.42176 2.42043 2.41958 2.41906 2.41889 2.41859 2.41848 4.24206
2.60755 2.28548 2.16271 2.09869 2.05319 2.01866 1.99388 1.97594 1.96229 1.94893
1.93332 1.91291 1.8913 1.87127 1.85851 1.85124 1.84917 1.84946 1.85123 1.85308
1.85595 1.86039 1.87104 1.89356 1.92866 1.97711 2.03477 2.10149 2.17226 2.24136
2.3025 2.35139 2.38691 2.41019 2.42379 2.43067 2.43329 2.43356 2.43248 2.4297
2.42671 2.42427 2.42234 2.42093 2.42015 2.41935 2.41897 2.4184 2.41833 4.24205
2.60745 2.28555 2.16254 2.09864 2.05316 2.01871 1.994 1.97593 1.96219 1.94881
1.93315 1.91261 1.89082 1.871 1.85845 1.85174 1.85009 1.85055 1.85224 1.85363
1.85613 1.86037 1.87122 1.89392 1.92896 1.97735 2.03493 2.10167 2.17251 2.24168
2.30284 2.35184 2.38749 2.41077 2.42425 2.43095 2.43353 2.43383 2.43276 2.43011
2.42718 2.42488 2.42319 2.42199 2.42112 2.42032 2.41998 2.41941 2.41914 4.24183
2.60797 2.28535 2.16293 2.09893 2.05306 2.0186 1.99354 1.97563 1.96194 1.9484
1.93246 1.91119 1.88933 1.86951 1.85737 1.85114 1.85047 1.85122 1.85364 1.85511
1.85806 1.8625 1.87336 1.89642 1.93115 1.97877 2.03544 2.10157 2.17221 2.2415
2.30292 2.35215 2.38805 2.41152 2.42507 2.43167 2.43396 2.43396 2.4324 2.42954
2.42668 2.42434 2.42255 2.42147 2.42093 2.42067 2.42053 2.42018 2.4195 4.24199
2.60764 2.28535 2.16249 2.09897 2.05285 2.01868 1.99419 1.97597 1.96179 1.94813
1.93215 1.91044 1.88835 1.86905 1.85722 1.85229 1.85214 1.85315 1.8556 1.85659
1.85871 1.86258 1.87348 1.89631 1.93098 1.97913 2.0361 2.10223 2.1726 2.2418
2.30345 2.35311 2.38932 2.41291 2.42634 2.43259 2.4345 2.43428 2.43237 2.42948
2.42672 2.42441 2.42278 2.42179 2.4215 2.42136 2.42123 2.42083 2.41967 4.24074
2.60925 2.28354 2.16508 2.09894 2.05186 2.01848 1.99421 1.97543 1.96112 1.94715
1.92965 1.9074 1.8852 1.86651 1.85452 1.84907 1.8496 1.85123 1.85542 1.85664
1.86024 1.86461 1.87593 1.90113 1.93559 1.98274 2.0384 2.10345 2.17359 2.24311
2.30512 2.3549 2.39132 2.41546 2.42952 2.43612 2.43801 2.43753 2.43468 2.43042
2.42675 2.42424 2.42257 2.42156 2.42107 2.4207 2.42008 2.41922 2.41753 4.24283
2.60678 2.28684 2.1618 2.09428 2.05175 2.01904 1.99358 1.97696 1.96545 1.95342
1.93691 1.91592 1.89288 1.87447 1.86104 1.85509 1.85536 1.85857 1.86326 1.86695
1.87014 1.87391 1.88572 1.90986 1.94122 1.98531 2.03841 2.10057 2.16781 2.23556
2.29765 2.3491 2.38744 2.41291 2.42754 2.43432 2.43651 2.43633 2.43417 2.43025
2.42645 2.42333 2.42155 2.42085 2.42104 2.42183 2.42291 2.42325 2.42293 4.24423
2.60447 2.28795 2.1605 2.08843 2.10614 2.02162 2.00553 1.98796 1.96261 1.94344
1.93161 1.91963 1.90633 1.90047 1.90164 1.91221 1.91904 1.92279 1.92834 1.93424
1.94242 1.95078 1.78548 1.86948 1.96985 2.04652 2.11219 2.16773 2.21905 2.266
2.30728 2.33961 2.36038 2.37065 2.37382 2.37437 2.37539 2.37803 2.38369 2.39088
2.39816 2.40463 2.40965 2.41325 2.41527 2.41683 2.41753 2.418 2.41852 4.24315
2.60453 2.28935 2.16136 2.10127 2.13137 2.00779 2.16497 2.10198 2.05697 2.03176
2.00947 1.99234 1.98149 1.97558 1.97184 1.96827 1.97029 1.97834 1.99004 2.00521
2.02597 2.05504 2.00501 1.93092 2.01139 2.07645 2.13719 2.18823 2.23675 2.28023
2.31225 2.3301 2.33648 2.33632 2.33306 2.33291 2.33447 2.33835 2.34638 2.3574
2.36939 2.38041 2.38851 2.39336 2.39518 2.39519 2.39421 2.39324 2.39453 4.24363
2.60465 2.29002 2.1586 2.1051 2.12431 2.00323 2.15898 2.0981 2.05398 2.02591
2.00485 1.99051 1.9823 1.97616 1.97283 1.97317 1.97597 1.98242 1.99352 2.01082
2.03531 2.06591 2.01474 1.94069 2.01847 2.08026 2.13805 2.18623 2.23349 2.27695
2.30897 2.32634 2.33215 2.33173 2.32911 2.32975 2.33188 2.33612 2.34393 2.35452
2.36637 2.37745 2.38597 2.39135 2.39389 2.39455 2.3942 2.39363 2.39408 4.24373
2.60466 2.29009 2.15834 2.10447 2.12364 2.0074 2.16437 2.10012 2.05491 2.0266
2.005 1.98887 1.97852 1.97227 1.97058 1.97336 1.97803 1.98557 1.9979 2.01477
2.03715 2.06512 2.01215 1.93986 2.01735 2.0789 2.13671 2.18482 2.23152 2.27499
2.30827 2.32761 2.33513 2.3356 2.33292 2.33306 2.33471 2.33847 2.34569 2.35542
2.36637 2.37668 2.38472 2.38992 2.39251 2.39336 2.39341 2.39344 2.39473 4.24376
2.60462 2.29029 2.15895 2.10403 2.12486 2.00945 2.16564 2.0985 2.05257 2.02467
2.00369 1.98693 1.97613 1.97142 1.97374 1.97953 1.98515 1.9924 2.00345 2.01851
2.03929 2.06641 2.01311 1.94173 2.01933 2.08001 2.13705 2.18455 2.23093 2.27442
2.30773 2.32698 2.33435 2.33459 2.33148 2.33143 2.33312 2.33717 2.34475 2.35459
2.36566 2.37617 2.38451 2.39008 2.39277 2.39379 2.39388 2.39396 2.39523 4.2438
2.60451 2.29028 2.1596 2.10338 2.1256 2.0125 2.16804 2.09779 2.05089 2.02211
2.00071 1.98359 1.97162 1.9676 1.97493 1.98593 1.99237 1.99798 2.00797 2.02122
2.04054 2.06721 2.01378 1.94275 2.02026 2.08127 2.13828 2.18485 2.22991 2.27294
2.30725 2.32836 2.3373 2.33846 2.33586 2.33491 2.33609 2.33925 2.34576 2.3548
2.36502 2.37483 2.38282 2.38832 2.39117 2.39226 2.39257 2.39288 2.39471 4.24386
2.6044 2.29043 2.16061 2.10302 2.12622 2.01543 2.1696 2.09642 2.04892 2.01959
1.99726 1.97905 1.96573 1.95791 1.97119 1.99867 2.00373 2.00617 2.01386 2.02541
2.04192 2.06682 2.01303 1.94297 2.0219 2.08297 2.13993 2.1866 2.23127 2.27283
2.30508 2.32426 2.33178 2.33207 2.32892 2.32889 2.33069 2.33518 2.34324 2.3533
2.36425 2.37469 2.38309 2.38886 2.39184 2.39295 2.39315 2.39337 2.39502 4.24388
2.60431 2.29042 2.16181 2.10268 2.12659 2.01962 2.1727 2.09546 2.04691 2.01688
1.99351 1.97219 1.95357 1.9489 1.95809 2.0251 2.01704 2.0133 2.01858 2.02935
2.04459 2.06754 2.0163 1.94518 2.0198 2.08034 2.13794 2.1867 2.23459 2.2811
2.31874 2.34179 2.35091 2.35126 2.34675 2.34251 2.342 2.34319 2.34689 2.35443
2.36338 2.37246 2.38027 2.38593 2.38931 2.39073 2.39127 2.39173 2.39389 4.24393
2.60425 2.29042 2.163 2.10254 2.12694 2.0236 2.17651 2.09561 2.04502 2.01467
1.99065 1.96473 1.92867 1.93015 1.45037 1.67089 1.89981 1.98733 2.03783 2.06702
2.08443 2.10303 2.03801 1.94195 2.01707 2.07693 2.13419 2.18384 2.23591 2.28695
2.32604 2.34712 2.35275 2.34976 2.3412 2.33602 2.33586 2.33785 2.34367 2.35311
2.36351 2.37364 2.38199 2.3879 2.3912 2.39254 2.39283 2.3931 2.3947 4.24388
2.60426 2.29038 2.1639 2.1025 2.12733 2.02751 2.18174 2.099 2.0452 2.01302
1.98877 1.96661 1.88658 2.06224 1.46256 1.68509 1.82506 1.93245 2.01144 2.05161
2.07049 2.08909 2.02208 1.93134 2.00721 2.07094 2.12958 2.17909 2.22765 2.27167
2.30063 2.31066 2.30757 2.29138 2.27328 2.26254 2.26095 2.26497 2.27908 2.30049
2.32311 2.34424 2.36216 2.37516 2.38375 2.38783 2.3899 2.39084 2.39348 4.24381
2.60434 2.29033 2.16472 2.10241 2.12747 2.03007 2.18724 2.09945 2.04448 2.01026
1.98539 2.00374 1.92937 1.66298 2.24014 2.15832 2.11382 2.08886 2.08293 2.00117
1.87952 1.94096 1.98649 2.03803 2.0794 2.10784 2.12447 2.1324 2.13625 2.13929
2.14454 2.15468 2.17085 2.19173 2.21647 2.24424 2.27362 2.30279 2.32929 2.35193
2.36848 2.37986 2.38561 2.38897 2.39036 2.39371 4.24366 2.60435 2.29049 2.16512
2.10247 2.12792 2.03334 2.19384 2.1014 2.0459 2.00929 1.97706 1.96263 1.93636
2.27532 1.26026 1.2858 1.36855 1.35671 1.32671 1.31885 1.42141 1.67559 1.79123
1.87845 1.93818 1.99643 2.05789 2.11376 2.15479 2.18144 2.199 2.21253 2.22657
2.24257 2.25922 2.27449 2.28929 2.30385 2.32006 2.33595 2.35205 2.36398 2.37351
2.37796 2.38246 2.38472 2.39047 4.24364 2.6043 2.29063 2.16528 2.10253 2.12849
2.03524 2.19952 2.10467 2.05179 2.0201 1.87661 1.94528 1.58361 1.71056 1.89092
1.58866 1.66326 1.81525 1.90739 1.99251 2.01153 1.63353 1.73175 1.80661 1.86971
1.93238 2.01117 2.10647 2.21212 2.31735 2.40608 2.46556 2.50202 2.51669 2.50716
2.46521 2.42198 2.38912 2.36844 2.35919 2.35731 2.35977 2.3685 2.37339 2.37957
2.38276 2.39064 4.24361 2.60434 2.29059 2.16526 2.1028 2.12878 2.03741 2.2039
2.11226 2.05761 2.03919 1.4716 2.66748 1.21589 0.84213 0.696189 0.784327 0.887651
0.991823 1.3152 1.40339 1.45862 1.50295 1.55935 1.62533 1.69499 1.7635 1.82999
1.89362 1.95373 2.00881 2.05731 2.10059 2.14078 2.18084 2.22094 2.26177 2.29917
2.33193 2.35533 2.37206 2.38009 2.38605 2.3885 2.39373 4.24359 2.60438 2.29053
2.16529 2.10282 2.12868 2.03628 2.20632 2.10939 2.05353 2.02589 1.34194 2.27455
2.19597 2.0504 1.91564 1.87127 1.88376 1.82782 1.77367 1.86211 1.9178 1.96301
1.98247 1.98362 1.9724 1.94305 1.91807 1.91037 1.91762 1.9495 2.00611 2.07015
2.13624 2.1997 2.25619 2.30298 2.33912 2.36474 2.38102 2.39021 2.39452 2.39617
2.39669 2.39732 4.24359 2.60441 2.29052 2.1653 2.10265 2.12862 2.03659 2.20627
2.10884 2.04735 2.00588 1.99064 1.59165 1.68114 2.17407 1.75034 1.64853 1.7132
1.80033 1.88587 1.94969 1.90107 1.97899 2.04586 2.10987 2.16598 2.2206 2.27552
2.32071 2.34792 2.35762 2.35741 2.35032 2.33889 2.32886 2.32391 2.32425 2.33001
2.34217 2.35516 2.36738 2.37731 2.38434 2.38805 2.38987 2.39074 2.39293 4.24362
2.60438 2.29045 2.16508 2.10252 2.12817 2.03581 2.20446 2.10733 2.04643 2.00104
1.94817 1.89827 2.19046 2.26827 2.1663 2.13508 2.14568 2.14193 2.1572 2.20547
2.12973 1.93849 1.99946 2.04468 2.09013 2.14801 2.22107 2.3035 2.3802 2.44035
2.47933 2.49805 2.50396 2.49935 2.46583 2.41413 2.376 2.35353 2.34409 2.34289
2.34866 2.36421 2.37698 2.38369 2.38777 2.38945 2.39322 4.24377 2.60432 2.29041
2.16458 2.10248 2.12765 2.0346 2.20106 2.10674 2.04484 2.00286 1.9643 1.9566
2.30632 1.04003 2.62626 2.41047 2.27178 2.23175 2.2045 2.23981 2.28855 2.04554
1.8575 1.92627 1.97218 2.00724 2.05335 2.1087 2.16017 2.1951 2.21269 2.22059
2.22593 2.23291 2.24459 2.26072 2.27989 2.30072 2.32134 2.34023 2.35622 2.36902
2.37809 2.38397 2.38674 2.38833 2.38929 2.39228 4.24388 2.60424 2.29041 2.16377
2.1025 2.12719 2.0321 2.19644 2.10435 2.04453 2.00546 1.97381 1.95471 1.93104
1.94753 1.88323 1.95181 1.97999 1.97163 1.96637 1.96699 1.97883 1.98946 1.95288
1.9029 1.97826 2.03542 2.09163 2.1323 2.16742 2.19888 2.2225 2.23489 2.23713
2.23563 2.23716 2.24472 2.26358 2.2875 2.31149 2.33326 2.35158 2.36624 2.37714
2.38439 2.3884 2.39003 2.39072 2.39128 2.39359 4.24397 2.60425 2.29042 2.16297
2.1026 2.12678 2.02917 2.19222 2.10249 2.04384 2.0067 1.97768 1.95586 1.92925
1.86098 1.946 2.02841 2.04442 2.03276 2.02505 2.0257 2.03493 2.05086 1.99643
1.92735 2.00271 2.06332 2.11992 2.16742 2.21143 2.25498 2.29298 2.31884 2.33091
2.33317 2.33069 2.33001 2.33169 2.33644 2.34492 2.35481 2.36506 2.37449 2.38199
2.38727 2.39002 2.39109 2.39133 2.39162 2.39346 4.2439 2.60433 2.29034 2.16197
2.10261 2.12622 2.02589 2.18834 2.10106 2.04422 2.00885 1.98192 1.96151 1.94242
1.92906 1.96336 2.00912 2.02739 2.03011 2.03341 2.03884 2.05128 2.07325 2.01594
1.93744 2.01686 2.07785 2.13398 2.17982 2.22388 2.26608 2.29975 2.32037 2.329
2.33009 2.32861 2.32956 2.3327 2.33921 2.34814 2.35829 2.3688 2.37835 2.38578
2.39057 2.39278 2.39353 2.39352 2.39356 2.39479 4.24389 2.60442 2.2904 2.16101
2.10299 2.12585 2.02247 2.18535 2.10092 2.04513 2.01071 1.98522 1.96739 1.95527
1.95106 1.96881 1.99464 2.01057 2.0191 2.02765 2.0375 2.05333 2.07701 2.02046
1.94069 2.01785 2.07881 2.13557 2.18218 2.22753 2.27117 2.30591 2.32712 2.33591
2.33692 2.33431 2.3342 2.33588 2.33995 2.34735 2.35674 2.36713 2.37686 2.38448
2.38937 2.39168 2.39249 2.39258 2.39274 2.39432 4.24381 2.60449 2.29026 2.15974
2.10363 2.1251 2.01877 2.18173 2.10077 2.04707 2.01375 1.98905 1.97161 1.96158
1.96001 1.96933 1.98425 1.99739 2.00794 2.01901 2.03267 2.0522 2.07774 2.02183
1.94074 2.01797 2.07909 2.13662 2.18423 2.23029 2.27316 2.30588 2.32478 2.3321
2.33255 2.33035 2.33094 2.33325 2.33807 2.34617 2.35641 2.36767 2.37802 2.38599
2.39094 2.3932 2.39394 2.39391 2.39386 2.39484 4.24371 2.60452 2.29023 2.15912
2.10514 2.12285 2.01513 2.17778 2.1024 2.05052 2.01763 1.99249 1.97546 1.96661
1.9641 1.96826 1.97584 1.98655 1.99705 2.00972 2.02659 2.04931 2.07668 2.0225
1.94178 2.01842 2.07984 2.13739 2.18531 2.23233 2.27606 2.30873 2.32687 2.3333
2.33322 2.33067 2.33124 2.33325 2.33727 2.34485 2.35519 2.36686 2.37762 2.3859
2.39098 2.39326 2.39378 2.39332 2.39271 2.39328 4.2432 2.60442 2.28959 2.16142
2.10156 2.115 2.00372 2.16809 2.10223 2.05463 2.023 1.99824 1.98119 1.97344
1.96938 1.96987 1.97376 1.98042 1.98906 2.00106 2.01871 2.04273 2.07142 2.01681
1.93234 2.01216 2.07688 2.13744 2.18833 2.23668 2.27995 2.31171 2.3293 2.33547
2.33519 2.33193 2.33197 2.33365 2.33782 2.34636 2.35778 2.37005 2.38119 2.38944
2.39423 2.39597 2.39597 2.39494 2.39383 2.39481 4.24427 2.60442 2.28807 2.16059
2.08848 2.12601 2.10479 2.07386 2.02713 1.99684 1.97737 1.96566 1.95625 1.94414
1.93929 1.9408 1.94682 1.95364 1.95949 1.96659 1.97506 1.98585 1.99792 1.78829
1.87182 1.97127 2.04749 2.11274 2.16803 2.21924 2.26624 2.30765 2.34017 2.36116
2.37168 2.37499 2.37542 2.37632 2.37882 2.38431 2.3914 2.39848 2.40478 2.4096
2.41312 2.41489 2.41631 2.41691 2.41741 2.41805 4.24296 2.60664 2.28699 2.16164
2.09439 2.05172 2.01907 1.99347 1.97671 1.96532 1.95282 1.93577 1.91469 1.89218
1.87477 1.86217 1.85725 1.85803 1.86216 1.86762 1.87173 1.87521 1.87868 1.88988
1.91331 1.94396 1.98738 2.04 2.10172 2.16846 2.23583 2.29759 2.34869 2.38686
2.41228 2.42693 2.43382 2.4361 2.43595 2.43387 2.43013 2.42648 2.42345 2.4216
2.42086 2.42101 2.42176 2.4228 2.42321 2.42296 4.24071 2.60928 2.2835 2.16513
2.0989 2.05184 2.01826 1.99387 1.97512 1.96046 1.94656 1.9284 1.9059 1.88378
1.86633 1.85476 1.85028 1.85125 1.8538 1.85888 1.86034 1.86419 1.86826 1.87903
1.90348 1.9373 1.984 2.03939 2.10421 2.17411 2.24347 2.30548 2.35537 2.39195
2.4162 2.43034 2.43703 2.43898 2.43845 2.43538 2.43084 2.42709 2.42431 2.42249
2.42146 2.42105 2.42066 2.41997 2.41908 2.41731 4.24196 2.60771 2.28529 2.16248
2.09886 2.05281 2.0184 1.99394 1.97552 1.96121 1.94726 1.93143 1.9094 1.88735
1.86883 1.8576 1.85349 1.85379 1.85556 1.85868 1.85988 1.86219 1.86596 1.87647
1.89862 1.93273 1.98054 2.03727 2.10319 2.17337 2.24241 2.30394 2.3535 2.38967
2.41318 2.42646 2.4326 2.43449 2.43432 2.43257 2.42971 2.42689 2.42461 2.42296
2.42194 2.42155 2.42131 2.42108 2.42059 2.41942 4.24181 2.60803 2.28527 2.16289
2.09884 2.05295 2.01828 1.99322 1.97513 1.96141 1.94771 1.93194 1.91043 1.88853
1.86935 1.85773 1.85211 1.85209 1.85336 1.85655 1.85817 1.86127 1.86557 1.87607
1.8986 1.93295 1.98026 2.0366 2.10239 2.1727 2.24182 2.30322 2.35255 2.38857
2.41219 2.42582 2.43236 2.43451 2.43446 2.43288 2.43016 2.42735 2.42492 2.42289
2.4217 2.42109 2.42071 2.42053 2.42015 2.4194 4.24204 2.60748 2.28552 2.16245
2.09852 2.05306 2.01834 1.99377 1.97544 1.96158 1.94806 1.93288 1.912 1.89035
1.87089 1.85889 1.85281 1.85191 1.85265 1.85481 1.85639 1.85905 1.86324 1.87379
1.89604 1.93077 1.97892 2.03624 2.10265 2.17316 2.24214 2.30323 2.35224 2.38784
2.41104 2.42452 2.43126 2.43378 2.43397 2.4327 2.43023 2.42746 2.42536 2.42362
2.42249 2.42154 2.4207 2.42026 2.41956 2.41916 4.24206 2.60755 2.28547 2.16259
2.09857 2.05304 2.01834 1.99356 1.97546 1.96177 1.94821 1.933 1.91236 1.891
1.87124 1.85906 1.85234 1.85088 1.8514 1.85353 1.85563 1.85874 1.86321 1.87364
1.89562 1.93027 1.97838 2.03583 2.10245 2.17312 2.24212 2.30318 2.35201 2.38746
2.41063 2.42408 2.43084 2.43347 2.43377 2.43267 2.42986 2.42676 2.4245 2.42278
2.42157 2.42083 2.42011 2.41971 2.41916 2.41887 4.2421 2.60746 2.28544 2.16253
2.09849 2.05301 2.01837 1.9937 1.97552 1.96184 1.94843 1.93326 1.91281 1.89144
1.87175 1.85935 1.85234 1.85058 1.85106 1.85315 1.85526 1.8581 1.86238 1.87272
1.89486 1.9299 1.97831 2.03584 2.10241 2.17306 2.24208 2.30324 2.3522 2.3877
2.41088 2.42423 2.43084 2.43325 2.43344 2.43224 2.42938 2.42632 2.42388 2.42197
2.42074 2.42004 2.41954 2.41934 2.41912 2.41909 1.91615 1.97925 2.14835 1.35635
2.30126 1.95403 2.08277 2.00994 1.99502 2.66114 1.54579 2.46252 2.09913 1.7428
2.52183 2.01855 2.07897 1.30256 1.72128 1.27523 1.96968 1.89315 2.01973 1.92985
1.64301 2.27429 3.71772 1.7602 0.392423 1.94589 1.64103 1.91992 1.38424 2.05627
0.914324 1.75986 1.70794 1.49611 1.23223 1.77556 1.74747 1.47808 0.992588 1.46544
1.7141 2.04266 3.45677 2.27362 1.80507 1.32462 2.52344 1.47984 1.50742 1.97248
2.20414 2.18178 1.96612 1.44859 2.17697 2.12525 2.04743 2.20233 2.51805 2.44336
1.58854 1.96547 1.80805 1.88614 1.69792 1.93586 2.18598 1.57174 1.92445 1.89779
2.14204 1.55892 1.97552 1.88737 1.57153 2.02046 1.9701 1.60047 2.19212 1.55197
1.79743 1.61237 1.74529 1.6423 1.688 1.70163 1.96317 1.92829 1.9261 2.56613
2.07368 1.80111 2.10355 2.03406 2.07376 1.95165 1.69289 2.50126 1.65505 1.60632
1.6952 0.975426 1.07559 2.09587 2.00806 2.05855 2.13251 2.18835 1.00016 1.00016
2.08639 1.85687 1.69755 1.5362 1.95645 1.87854 1.93986 1.88141 2.11808 1.83567
2.19118 2.12643 2.08572 1.96961 2.14077 2.41425 0.254324 2.64094 1.86201 2.03545
1.82368 1.86091 1.92184 2.64548 3.0941 2.37263 2.01685 2.73597 2.37138 2.20483
2.39903 1.77065 1.88808 1.28486 0.812927 0.983282 1.23317 1.64322 1.8609 1.82385
1.80751 1.84781 1.81971 1.88812 1.53859 2.25937 2.83744 1.43348 1.76244 0.651784
1.44991 2.08164 1.61739 2.02468 1.91377 2.29705 2.39849 1.69132 1.47361 1.99852
5.03453 2.10088 2.11553 2.02736 1.46904 1.83778 1.54738 2.01548 1.83147 1.43517
1.83715 1.47079 1.52156 1.40471 1.32465 1.53113 1.52578 1.31943 1.3339 1.62459
1.21775 2.12816 2.74237 1.68262 1.45031 1.5767 1.44667 1.27684 1.61067 1.22296
1.19673 1.61539 1.1397 1.52184 2.3822 1.73972 2.09292 2.64797 2.67446 1.57128
2.17826 2.56513 1.46286 2.39753 1.76848 1.17256 2.52441 1.36236 1.45737 2.07953
1.47771 1.68107 1.68008 1.35031 2.02079 1.60453 1.83725 1.861 1.52756 1.64826
1.24693 1.53913 1.38449 2.28345 2.10349 1.78332 1.94739 1.93602 1.84713 0.677249
0.650234 1.47137 1.39148 1.1861 1.38455 1.21136 0.868554 1.07041 1.36502 1.3559
2.05698 1.97594 1.96879 2.06873 1.26573 3.36255 2.97359 1.819 1.06246 1.77635
1.54396 1.62709 2.72609 3.19734 1.95193 1.81813 2.08398 1.99427 2.00135 1.16384
1.65683 2.146 1.24982 0.575477 1.27587 1.28108 1.23461 0.302681 0.523927 1.78487
2.25532 2.26213 1.80744 1.94557 2.38778 2.66248 2.41526 1.96973 2.25328 1.64829
1.56443 1.0281 1.99928 2.00494 1.97065 1.99561 1.96772 1.9272 1.47504 1.63669
1.42825 1.8992 1.43783 1.6497 2.64096 1.50951 2.83844 2.62304 1.70538 2.18221
1.60527 1.71853 2.07109 1.97111 1.97009 2.06209 2.27954 1.88232 1.45459 1.50134
1.83524 1.93779 1.8958 1.70908 1.88159 1.89373 1.68683 1.83462 1.83335 1.94377
1.71476 1.49862 1.73271 1.55572 1.86706 1.69307 3.88045 2.16369 2.3189 2.09888
1.5531 2.04593 1.90544 0.465035 1.23229 3.40054 2.50646 2.70546 3.90475 1.62188
1.63267 1.76734 2.08555 2.3029 2.03144 1.69595 1.39449 1.83456 1.98859 2.01297
1.52274 2.86778 2.6747 3.04422 2.92659 1.36925 1.46326 1.73975 1.51851 1.86213
2.17664 1.91531 1.98647 1.9213 2.33568 1.91214 1.5974 1.71437 1.70046 1.70574
1.73334 1.54886 1.70711 1.02663 1.72484 1.4667 1.60436 1.51821 1.31707 1.3559
1.73084 1.73084 1.63913 1.68523 1.69428 1.86154 1.99559 1.88516 2.19628 2.75017
0.765176 0.816976 4.6119 2.73235 3.671 2.62572 2.77149 2.95508 2.90129 2.00136
2.36178 2.18512 1.72109 1.75248 2.30302 2.02816 2.34397 1.96652 2.63777 1.96308
2.19895 1.41672 1.84424 0.740362 0.716474 0.842624 0.590845 1.55652 1.62568 1.82879
1.27667 0.583256 1.0604 1.0291 1.42155 1.49905 0.87056 1.62926 1.84338 1.63355
1.87351 1.22201 1.17083 1.65639 0.990044 0.754989 1.574 1.70351 1.89095 1.8029
2.21611 2.1959 1.80957 1.64925 3.47598 1.77809 0.93848 1.10745 4.18426 2.80077
1.70221 2.14577 1.64636 1.76907 2.2929 2.1518 1.46362 2.04765 1.78702 1.44777
1.7445 1.67221 1.52824 1.55672 1.87564 1.44006 0.868255 0.346969 1.56804 1.37512
1.56612 1.16122 1.54227 1.0132 1.53845 1.20084 1.24541 1.54715 1.40108 1.66579
1.10665 1.29145 1.37793 1.14519 1.57537 1.17726 1.08159 1.51353 1.09732 3.56066
3.48594 3.52558 4.43974 0.492351 3.56434 2.651 1.50109 1.8826 2.43687 1.77719
1.44225 1.76237 1.7942 2.26126 1.68873 1.31241 1.72967 1.50875 1.58494 1.33967
2.89794 3.16894 3.16894 1.32425 1.65894 1.52913 1.66637 1.8934 2.29423 1.41055
0.781499 1.67387 3.55809 2.14773 2.64349 2.61161 2.44146 2.25381 2.44793 0.865367