# vtk DataFile Version 2.0
sampleSurface
ASCII
DATASET POLYDATA
POINTS 28194 float
-1488.34 -1520.34 1.5 -1600.36 -1520.34 1.5 -1600.36 -1600.36 1.5 -1488.34 -1600.36
1.5 -1376.31 -1520.34 1.5 -1376.31 -1600.36 1.5 -1264.29 -1520.34 1.5
-1264.29 -1600.36 1.5 -1152.26 -1520.34 1.5 -1152.26 -1600.36 1.5 -1040.24
-1520.34 1.5 -1040.24 -1600.36 1.5 -928.21 -1520.34 1.5 -928.21 -1600.36
1.5 -816.185 -1520.34 1.5 -816.185 -1600.36 1.5 -704.16 -1520.34 1.5
-704.16 -1600.36 1.5 -592.134 -1520.34 1.5 -592.134 -1600.36 1.5 -480.109
-1520.34 1.5 -480.109 -1600.36 1.5 -368.084 -1520.34 1.5 -368.084 -1600.36
1.5 -256.059 -1520.34 1.5 -256.059 -1600.36 1.5 -144.033 -1520.34 1.5
-144.033 -1600.36 1.5 -32.008 -1520.34 1.5 -32.008 -1600.36 1.5 80.0173
-1520.34 1.5 80.0173 -1600.36 1.5 192.043 -1520.34 1.5 192.043 -1600.36
1.5 304.068 -1520.34 1.5 304.068 -1600.36 1.5 416.093 -1520.34 1.5
416.093 -1600.36 1.5 528.119 -1520.34 1.5 528.119 -1600.36 1.5 640.144
-1520.34 1.5 640.144 -1600.36 1.5 752.169 -1520.34 1.5 752.169 -1600.36
1.5 864.195 -1520.34 1.5 864.195 -1600.36 1.5 976.22 -1520.34 1.5
976.22 -1600.36 1.5 1088.25 -1520.34 1.5 1088.25 -1600.36 1.5 1200.27
-1520.34 1.5 1200.27 -1600.36 1.5 1312.3 -1520.34 1.5 1312.3 -1600.36
1.5 1424.32 -1520.34 1.5 1424.32 -1600.36 1.5 1536.35 -1520.34 1.5
1536.35 -1600.36 1.5 1648.37 -1520.34 1.5 1648.37 -1600.36 1.5 1760.4
-1520.34 1.5 1760.4 -1600.36 1.5 1872.42 -1520.34 1.5 1872.42 -1600.36
1.5 1984.45 -1520.34 1.5 1984.45 -1600.36 1.5 2096.47 -1520.34 1.5
2096.47 -1600.36 1.5 2208.5 -1520.34 1.5 2208.5 -1600.36 1.5 2320.52
-1520.34 1.5 2320.52 -1600.36 1.5 2432.55 -1520.34 1.5 2432.55 -1600.36
1.5 2544.58 -1520.34 1.5 2544.58 -1600.36 1.5 2656.6 -1520.34 1.5
2656.6 -1600.36 1.5 2768.63 -1520.34 1.5 2768.63 -1600.36 1.5 2880.65
-1520.34 1.5 2880.65 -1600.36 1.5 2992.68 -1520.34 1.5 2992.68 -1600.36
1.5 3104.7 -1520.34 1.5 3104.7 -1600.36 1.5 3216.73 -1520.34 1.5
3216.73 -1600.36 1.5 3328.75 -1520.34 1.5 3328.75 -1600.36 1.5 3440.78
-1520.34 1.5 3440.78 -1600.36 1.5 3552.8 -1520.34 1.5 3552.8 -1600.36
1.5 3664.83 -1520.34 1.5 3664.83 -1600.36 1.5 3776.85 -1520.34 1.5
3776.85 -1600.36 1.5 3888.88 -1520.34 1.5 3888.88 -1600.36 1.5 4000.9
-1600.36 1.5 4000.9 -1520.34 1.5 -1488.34 -1440.33 1.5 -1600.36 -1440.33
1.5 -1376.31 -1440.33 1.5 -1264.29 -1440.33 1.5 -1152.26 -1440.33 1.5
-1040.24 -1440.33 1.5 -928.21 -1440.33 1.5 -816.185 -1440.33 1.5 -704.16
-1440.33 1.5 -592.134 -1440.33 1.5 -480.109 -1440.33 1.5 -368.084 -1440.33
1.5 -256.059 -1440.33 1.5 -144.033 -1440.33 1.5 -32.0081 -1440.33 1.5
80.0172 -1440.33 1.5 192.043 -1440.33 1.5 304.068 -1440.33 1.5 416.093
-1440.33 1.5 528.119 -1440.33 1.5 640.144 -1440.33 1.5 752.169 -1440.33
1.5 864.195 -1440.33 1.5 976.22 -1440.33 1.5 1088.25 -1440.33 1.5
1200.27 -1440.33 1.5 1312.3 -1440.33 1.5 1424.32 -1440.33 1.5 1536.35
-1440.33 1.5 1648.37 -1440.33 1.5 1760.4 -1440.33 1.5 1872.42 -1440.33
1.5 1984.45 -1440.33 1.5 2096.47 -1440.33 1.5 2208.5 -1440.33 1.5
2320.52 -1440.33 1.5 2432.55 -1440.33 1.5 2544.58 -1440.33 1.5 2656.6
-1440.33 1.5 2768.63 -1440.33 1.5 2880.65 -1440.33 1.5 2992.68 -1440.33
1.5 3104.7 -1440.33 1.5 3216.73 -1440.33 1.5 3328.75 -1440.33 1.5
3440.78 -1440.33 1.5 3552.8 -1440.33 1.5 3664.83 -1440.33 1.5 3776.85
-1440.33 1.5 3888.88 -1440.33 1.5 4000.9 -1440.33 1.5 -1488.34 -1360.31
1.5 -1600.36 -1360.31 1.5 -1376.31 -1360.31 1.5 -1264.29 -1360.31 1.5
-1152.26 -1360.31 1.5 -1040.24 -1360.31 1.5 -928.21 -1360.31 1.5 -816.185
-1360.31 1.5 -704.16 -1360.31 1.5 -592.134 -1360.31 1.5 -480.109 -1360.31
1.5 -368.084 -1360.31 1.5 -256.059 -1360.31 1.5 -144.033 -1360.31 1.5
-32.0082 -1360.31 1.5 80.0172 -1360.31 1.5 192.043 -1360.31 1.5 304.068
-1360.31 1.5 416.093 -1360.31 1.5 528.119 -1360.31 1.5 640.144 -1360.31
1.5 752.169 -1360.31 1.5 864.195 -1360.31 1.5 976.22 -1360.31 1.5
1088.25 -1360.31 1.5 1200.27 -1360.31 1.5 1312.3 -1360.31 1.5 1424.32
-1360.31 1.5 1536.35 -1360.31 1.5 1648.37 -1360.31 1.5 1760.4 -1360.31
1.5 1872.42 -1360.31 1.5 1984.45 -1360.31 1.5 2096.47 -1360.31 1.5
2208.5 -1360.31 1.5 2320.52 -1360.31 1.5 2432.55 -1360.31 1.5 2544.58
-1360.31 1.5 2656.6 -1360.31 1.5 2768.63 -1360.31 1.5 2880.65 -1360.31
1.5 2992.68 -1360.31 1.5 3104.7 -1360.31 1.5 3216.73 -1360.31 1.5
3328.75 -1360.31 1.5 3440.78 -1360.31 1.5 3552.8 -1360.31 1.5 3664.83
-1360.31 1.5 3776.85 -1360.31 1.5 3888.88 -1360.31 1.5 4000.9 -1360.31
1.5 -1488.34 -1280.29 1.5 -1600.36 -1280.29 1.5 -1376.31 -1280.29 1.5
-1264.29 -1280.29 1.5 -1152.26 -1280.29 1.5 -1040.24 -1280.29 1.5 -928.21
-1280.29 1.5 -816.185 -1280.29 1.5 -704.16 -1280.29 1.5 -592.134 -1280.29
1.5 -480.109 -1280.29 1.5 -368.084 -1280.29 1.5 -256.059 -1280.29 1.5
-144.034 -1280.29 1.5 -32.0082 -1280.29 1.5 80.0171 -1280.29 1.5 192.042
-1280.29 1.5 304.068 -1280.29 1.5 416.093 -1280.29 1.5 528.119 -1280.29
1.5 640.144 -1280.29 1.5 752.169 -1280.29 1.5 864.195 -1280.29 1.5
976.22 -1280.29 1.5 1088.25 -1280.29 1.5 1200.27 -1280.29 1.5 1312.3
-1280.29 1.5 1424.32 -1280.29 1.5 1536.35 -1280.29 1.5 1648.37 -1280.29
1.5 1760.4 -1280.29 1.5 1872.42 -1280.29 1.5 1984.45 -1280.29 1.5
2096.47 -1280.29 1.5 2208.5 -1280.29 1.5 2320.52 -1280.29 1.5 2432.55
-1280.29 1.5 2544.58 -1280.29 1.5 2656.6 -1280.29 1.5 2768.63 -1280.29
1.5 2880.65 -1280.29 1.5 2992.68 -1280.29 1.5 3104.7 -1280.29 1.5
3216.73 -1280.29 1.5 3328.75 -1280.29 1.5 3440.78 -1280.29 1.5 3552.8
-1280.29 1.5 3664.83 -1280.29 1.5 3776.85 -1280.29 1.5 3888.88 -1280.29
1.5 4000.9 -1280.29 1.5 -1488.34 -1200.27 1.5 -1600.36 -1200.27 1.5
-1376.31 -1200.27 1.5 -1264.29 -1200.27 1.5 -1152.26 -1200.27 1.5 -1040.24
-1200.27 1.5 -928.21 -1200.27 1.5 -816.185 -1200.27 1.5 -704.16 -1200.27
1.5 -592.134 -1200.27 1.5 -480.109 -1200.27 1.5 -368.084 -1200.27 1.5
-256.059 -1200.27 1.5 -144.034 -1200.27 1.5 -32.0083 -1200.27 1.5 80.017
-1200.27 1.5 192.042 -1200.27 1.5 304.068 -1200.27 1.5 416.093 -1200.27
1.5 528.119 -1200.27 1.5 640.144 -1200.27 1.5 752.17 -1200.27 1.5
864.195 -1200.27 1.5 976.22 -1200.27 1.5 1088.25 -1200.27 1.5 1200.27
-1200.27 1.5 1312.3 -1200.27 1.5 1424.32 -1200.27 1.5 1536.35 -1200.27
1.5 1648.37 -1200.27 1.5 1760.4 -1200.27 1.5 1872.42 -1200.27 1.5
1984.45 -1200.27 1.5 2096.47 -1200.27 1.5 2208.5 -1200.27 1.5 2320.52
-1200.27 1.5 2432.55 -1200.27 1.5 2544.58 -1200.27 1.5 2656.6 -1200.27
1.5 2768.63 -1200.27 1.5 2880.65 -1200.27 1.5 2992.68 -1200.27 1.5
3104.7 -1200.27 1.5 3216.73 -1200.27 1.5 3328.75 -1200.27 1.5 3440.78
-1200.27 1.5 3552.8 -1200.27 1.5 3664.83 -1200.27 1.5 3776.85 -1200.27
1.5 3888.88 -1200.27 1.5 4000.9 -1200.27 1.5 -1488.34 -1120.25 1.5
-1600.36 -1120.25 1.5 -1376.31 -1120.25 1.5 -1264.29 -1120.25 1.5 -1152.26
-1120.25 1.5 -1040.24 -1120.25 1.5 -928.21 -1120.25 1.5 -816.185 -1120.25
1.5 -704.159 -1120.25 1.5 -592.134 -1120.25 1.5 -480.109 -1120.25 1.5
-368.084 -1120.25 1.5 -256.059 -1120.25 1.5 -144.034 -1120.25 1.5 -32.0084
-1120.25 1.5 80.0169 -1120.25 1.5 192.042 -1120.25 1.5 304.068 -1120.25
1.5 416.093 -1120.25 1.5 528.119 -1120.25 1.5 640.144 -1120.25 1.5
752.17 -1120.25 1.5 864.195 -1120.25 1.5 976.22 -1120.25 1.5 1088.25
-1120.25 1.5 1200.27 -1120.25 1.5 1312.3 -1120.25 1.5 1424.32 -1120.25
1.5 1536.35 -1120.25 1.5 1648.37 -1120.25 1.5 1760.4 -1120.25 1.5
1872.42 -1120.25 1.5 1984.45 -1120.25 1.5 2096.47 -1120.25 1.5 2208.5
-1120.25 1.5 2320.52 -1120.25 1.5 2432.55 -1120.25 1.5 2544.58 -1120.25
1.5 2656.6 -1120.25 1.5 2768.63 -1120.25 1.5 2880.65 -1120.25 1.5
2992.68 -1120.25 1.5 3104.7 -1120.25 1.5 3216.73 -1120.25 1.5 3328.75
-1120.25 1.5 3440.78 -1120.25 1.5 3552.8 -1120.25 1.5 3664.83 -1120.25
1.5 3776.85 -1120.25 1.5 3888.88 -1120.25 1.5 4000.9 -1120.25 1.5
-1488.34 -1040.23 1.5 -1600.36 -1040.23 1.5 -1376.31 -1040.23 1.5 -1264.29
-1040.23 1.5 -1152.26 -1040.24 1.5 -1040.24 -1040.24 1.5 -928.21 -1040.24
1.5 -984.223 -1040.24 1.5 -816.185 -1040.24 1.5 -872.197 -1040.24 1.5
-704.159 -1040.24 1.5 -760.172 -1040.24 1.5 -592.134 -1040.24 1.5 -648.147
-1040.24 1.5 -480.109 -1040.24 1.5 -536.121 -1040.24 1.5 -368.084 -1040.24
1.5 -424.096 -1040.24 1.5 -256.058 -1040.23 1.5 -312.071 -1040.24 1.5
-144.033 -1040.23 1.5 -200.046 -1040.23 1.5 -32.0081 -1040.23 1.5 -88.0207
-1040.23 1.5 80.0172 -1040.23 1.5 24.0046 -1040.23 1.5 192.043 -1040.23
1.5 136.03 -1040.23 1.5 304.068 -1040.23 1.5 248.055 -1040.23 1.5
416.094 -1040.23 1.5 360.081 -1040.23 1.5 528.119 -1040.23 1.5 472.106
-1040.23 1.5 640.144 -1040.24 1.5 584.132 -1040.24 1.5 752.17 -1040.24
1.5 696.157 -1040.24 1.5 864.195 -1040.24 1.5 808.183 -1040.24 1.5
976.221 -1040.24 1.5 920.208 -1040.24 1.5 1088.25 -1040.24 1.5 1032.23
-1040.24 1.5 1200.27 -1040.23 1.5 1312.3 -1040.23 1.5 1424.32 -1040.23
1.5 1536.35 -1040.23 1.5 1648.37 -1040.23 1.5 1760.4 -1040.23 1.5
1872.42 -1040.23 1.5 1984.45 -1040.24 1.5 2096.47 -1040.24 1.5 2208.5
-1040.24 1.5 2320.52 -1040.24 1.5 2432.55 -1040.24 1.5 2544.58 -1040.24
1.5 2656.6 -1040.24 1.5 2768.63 -1040.24 1.5 2880.65 -1040.24 1.5
2992.68 -1040.24 1.5 3104.7 -1040.24 1.5 3216.73 -1040.24 1.5 3328.75
-1040.24 1.5 3440.78 -1040.24 1.5 3552.8 -1040.24 1.5 3664.83 -1040.24
1.5 3776.85 -1040.24 1.5 3888.88 -1040.24 1.5 4000.9 -1040.24 1.5
-1488.34 -960.217 1.5 -1600.36 -960.217 1.5 -1376.31 -960.217 1.5 -1264.29
-960.217 1.5 -1152.26 -960.217 1.5 -1040.24 -1000.23 1.5 -1040.24 -960.217
1.5 -984.223 -1000.23 1.5 -872.197 -1000.23 1.5 -900.204 -1000.23 1.5
-928.21 -1000.23 1.5 -760.172 -1000.23 1.5 -788.178 -1000.23 1.5 -816.185
-1000.23 1.5 -648.147 -1000.23 1.5 -676.153 -1000.23 1.5 -704.159 -1000.23
1.5 -536.121 -1000.23 1.5 -564.128 -1000.23 1.5 -592.134 -1000.23 1.5
-424.096 -1000.23 1.5 -452.102 -1000.23 1.5 -480.109 -1000.23 1.5 -312.071
-1000.23 1.5 -340.077 -1000.23 1.5 -368.083 -1000.23 1.5 -200.045 -1000.23
1.5 -228.052 -1000.23 1.5 -256.058 -1000.23 1.5 -88.0199 -1000.23 1.5
-116.026 -1000.23 1.5 -144.033 -1000.23 1.5 24.0054 -1000.23 1.5 -4.0009
-1000.23 1.5 -32.0072 -1000.23 1.5 136.031 -1000.23 1.5 108.024 -1000.23
1.5 80.0181 -1000.23 1.5 248.056 -1000.23 1.5 220.05 -1000.23 1.5
[...]
CELL_DATA 27434
FIELD attributes 2
k 1 27434 float
3.05703 2.20517 1.92584 1.78517 1.68677 1.6193 1.56854 1.52524 1.48782 1.45615 1.42911
1.40543 1.38427 1.36506 1.34733 1.33077 1.31525 1.30075 1.28734 1.27512 1.26419
1.25459 1.24633 1.23928 1.23317 1.22765 1.22236 1.21709 1.21171 1.20622 1.20071
1.19521 1.18977 1.18442 1.17919 1.17409 1.16913 1.16432 1.15965 1.15512 1.15074
1.1465 1.1424 1.13844 1.13458 1.13089 1.12734 1.12351 1.12126 1.11568 3.05702
2.20517 1.9259 1.7853 1.6869 1.61935 1.56839 1.5249 1.48744 1.45585 1.42892
1.40534 1.38428 1.36512 1.34741 1.33082 1.31523 1.30064 1.28714 1.27484 1.26385
1.25425 1.24602 1.23907 1.23311 1.22772 1.22252 1.21728 1.21188 1.20636 1.2008
1.19527 1.1898 1.18443 1.17918 1.17407 1.16909 1.16427 1.15959 1.15506 1.15068
1.14644 1.14233 1.13837 1.13451 1.13082 1.12726 1.12344 1.12118 1.11561 3.05702
2.20521 1.92604 1.78553 1.68721 1.6195 1.56809 1.52417 1.48662 1.4552 1.42851
1.40518 1.38433 1.36532 1.34765 1.33101 1.31526 1.30047 1.28676 1.27427 1.26315
1.25349 1.24533 1.23859 1.23292 1.22779 1.22277 1.21759 1.21218 1.2066 1.20099
1.19542 1.18992 1.18452 1.17925 1.17413 1.16915 1.16431 1.15963 1.1551 1.15071
1.14647 1.14236 1.1384 1.13454 1.13084 1.12728 1.12345 1.1212 1.11562 3.05702
2.20529 1.92627 1.78592 1.68773 1.61983 1.56762 1.52302 1.4854 1.45427 1.42795
1.40496 1.38442 1.36562 1.348 1.33125 1.3153 1.30022 1.28621 1.27346 1.26213
1.2524 1.24433 1.23796 1.23279 1.22809 1.22334 1.21822 1.21269 1.20696 1.20121
1.19554 1.18995 1.18449 1.17917 1.17401 1.169 1.16414 1.15945 1.1549 1.15051
1.14626 1.14214 1.13818 1.13432 1.13062 1.12706 1.12323 1.12097 1.11539 3.05703
2.2054 1.92659 1.78656 1.68878 1.62057 1.56686 1.5211 1.48354 1.45302 1.42732
1.40491 1.38485 1.36634 1.34876 1.33182 1.31545 1.29989 1.2854 1.27222 1.26058
1.25069 1.24278 1.23689 1.23246 1.22839 1.22409 1.21911 1.21347 1.20757 1.20169
1.19592 1.19026 1.18474 1.17938 1.17419 1.16915 1.16428 1.15957 1.15501 1.15061
1.14635 1.14223 1.13826 1.13439 1.13069 1.12712 1.12328 1.12102 1.11542 3.05704
2.20554 1.927 1.7874 1.69045 1.62231 1.56621 1.51874 1.4814 1.45173 1.42686
1.40525 1.38589 1.36783 1.35035 1.33312 1.31624 1.30004 1.2849 1.2711 1.25898
1.24876 1.24108 1.23624 1.23277 1.22928 1.22534 1.22031 1.21434 1.20815 1.20208
1.19617 1.19041 1.18482 1.17941 1.17418 1.16912 1.16424 1.15952 1.15496 1.15056
1.1463 1.14218 1.13821 1.13434 1.13065 1.12708 1.12323 1.12097 1.11538 3.05706
2.20565 1.92736 1.78858 1.69292 1.62515 1.56348 1.51451 1.47899 1.45154 1.42838
1.40815 1.38983 1.3723 1.35472 1.3367 1.31872 1.30145 1.28541 1.27094 1.25849
1.24817 1.24069 1.23793 1.23714 1.23519 1.23166 1.22592 1.21891 1.21194 1.20536
1.19904 1.19293 1.18705 1.1814 1.17596 1.17073 1.1657 1.16085 1.15617 1.15166
1.14732 1.14312 1.13907 1.13514 1.13137 1.12775 1.12383 1.12155 1.11587 3.05709
2.20563 1.92614 1.79391 1.63698 1.51046 1.55353 1.51584 1.48701 1.46414 1.44452
1.42719 1.41102 1.39456 1.37686 1.35768 1.33799 1.31889 1.30127 1.28577 1.27264
1.26224 1.2596 1.22585 1.34509 1.3291 1.29755 1.27423 1.25689 1.24372 1.23292
1.22344 1.21482 1.20692 1.19959 1.19276 1.18634 1.18028 1.17453 1.16907 1.16386
1.15888 1.15412 1.14956 1.14516 1.14096 1.13696 1.13261 1.13012 1.12387 3.0571
2.20578 1.92661 1.79591 1.64118 1.491 1.51083 1.49624 1.43479 1.36811 1.32856
1.30172 1.28195 1.26614 1.25266 1.24081 1.23025 1.22073 1.21202 1.204 1.19656
1.18961 1.18309 1.17694 1.17114 1.16563 1.1604 1.15539 1.15063 1.14614 1.14124
1.1385 1.13152 3.05712 2.20595 1.92717 1.79723 1.64419 1.49851 1.52591 1.50467
1.44164 1.37315 1.33245 1.30481 1.28443 1.26812 1.25422 1.242 1.23113 1.22135
1.21242 1.20421 1.19659 1.1895 1.18285 1.1766 1.1707 1.1651 1.1598 1.15472
1.1499 1.14537 1.14038 1.13763 1.13056 3.05713 2.20606 1.9275 1.79795 1.64535
1.49994 1.52044 1.50275 1.44092 1.37337 1.3329 1.3051 1.2845 1.26802 1.25399
1.24167 1.2307 1.22084 1.21185 1.20359 1.19594 1.18881 1.18214 1.17587 1.16996
1.16435 1.15904 1.15396 1.14913 1.14459 1.13959 1.13685 1.12977 3.05713 2.20609
1.92756 1.79806 1.64522 1.49967 1.51532 1.50119 1.44054 1.37364 1.33323 1.30526
1.28447 1.26786 1.25372 1.24132 1.2303 1.22039 1.21138 1.20309 1.19543 1.18829
1.18161 1.17534 1.16941 1.1638 1.15849 1.1534 1.14856 1.14402 1.13901 1.13626
1.12916 3.05712 2.20604 1.9274 1.7977 1.64431 1.49846 1.50941 1.49824 1.43868
1.37269 1.33273 1.30494 1.28417 1.26751 1.25328 1.24077 1.22965 1.21965 1.21056
1.20221 1.1945 1.18732 1.18062 1.17432 1.16839 1.16277 1.15745 1.15236 1.14752
1.14299 1.13797 1.13523 1.12815 3.05711 2.20592 1.92705 1.79701 1.64288 1.49664
1.50149 1.49307 1.4347 1.36958 1.32994 1.30226 1.28156 1.26492 1.2507 1.23819
1.22705 1.21703 1.20792 1.19955 1.19182 1.18463 1.17791 1.1716 1.16565 1.16003
1.1547 1.14961 1.14477 1.14024 1.13521 1.13249 1.12537 3.0571 2.20577 1.9266
1.7961 1.64113 1.49443 1.49127 1.48411 1.42726 1.36382 1.32479 1.29714 1.27632
1.25958 1.2453 1.23278 1.22168 1.21173 1.20271 1.19446 1.18685 1.1798 1.17323
1.16707 1.16127 1.15579 1.15061 1.14567 1.14097 1.13657 1.1317 1.12905 1.12219
3.05708 2.2056 1.92608 1.79509 1.63924 1.49201 1.46584 1.47974 1.42492 1.36465
1.32858 1.30299 1.28353 1.2677 1.25405 1.24196 1.23116 1.22142 1.21254 1.20438
1.19683 1.1898 1.18323 1.17706 1.17124 1.16573 1.16051 1.15552 1.15078 1.14632
1.14142 1.13868 1.13169 3.05707 2.20542 1.92557 1.79408 1.63737 1.48957 1.58646
1.52048 1.46694 1.40503 1.36764 1.34158 1.32203 1.30622 1.29255 1.28039 1.26946
1.25955 1.25047 1.24208 1.23426 1.22693 1.22003 1.2135 1.20731 1.2014 1.19578
1.19038 1.18522 1.18034 1.17501 1.17189 1.16433 3.05705 2.20527 1.92511 1.79317
1.6357 1.48733 1.52114 1.49009 1.44328 1.38119 1.33919 1.30874 1.28583 1.26751
1.252 1.23853 1.22671 1.21621 1.20677 1.1982 1.19036 1.18313 1.17641 1.17015
1.16428 1.15874 1.15352 1.14854 1.14382 1.13941 1.13458 1.13185 1.12497 3.05702
2.20514 1.92476 1.79248 1.63439 1.4855 0.965133 1.12538 1.11105 1.08214 1.06116
1.04579 1.03473 1.02657 1.02007 1.01467 1.01016 1.00636 1.00311 1.00028 0.997802
0.995598 0.993622 0.991831 0.990194 0.988683 0.98729 0.985968 0.984763 0.983591 0.982409
0.981693 0.979828 3.05699 2.20506 1.92455 1.79206 1.63358 1.48427 0.960071 1.17552
1.15561 1.12088 1.10031 1.08733 1.07938 1.07442 1.07091 1.06816 1.06595 1.0641
1.06248 1.061 1.05961 1.05825 1.05693 1.0556 1.05428 1.05294 1.0516 1.05021
1.0489 1.04742 1.04609 1.04492 1.04249 3.05699 2.20503 1.92449 1.79196 1.63338
1.48378 2.06519 1.74895 1.66256 1.56401 1.49985 1.45432 1.42067 1.39438 1.37263
1.35403 1.33783 1.32354 1.31074 1.29914 1.28853 1.27874 1.26964 1.26113 1.25313
1.24557 1.23842 1.2316 1.22512 1.21904 1.21253 1.20853 1.19951 3.05699 2.20507
1.92461 1.79219 1.63381 1.48412 1.10673 1.14137 1.13322 1.11225 1.09482 1.08262
1.07423 1.06812 1.0632 1.05907 1.05558 1.05262 1.05006 1.04781 1.04581 1.04401
1.04238 1.04089 1.0395 1.0382 1.03698 1.0358 1.03474 1.03363 1.03262 1.03186
1.0301 3.057 2.20517 1.92489 1.79274 1.63483 1.48525 1.06429 1.23823 1.21565
1.18259 1.16094 1.14511 1.13323 1.1239 1.11596 1.10901 1.10289 1.09748 1.09264
1.08825 1.08425 1.08058 1.07719 1.07403 1.07107 1.06828 1.06566 1.06316 1.06081
1.05855 1.05625 1.05476 1.05128 3.05701 2.20531 1.9253 1.79355 1.63634 1.48705
0.519323 1.62653 1.73816 1.65876 1.57095 1.51667 1.478 1.44887 1.42562 1.40591
1.38863 1.37326 1.35943 1.34684 1.33526 1.32453 1.31452 1.30513 1.29629 1.28792
1.27998 1.27242 1.26521 1.2583 1.25185 1.24488 1.2406 1.23089 3.05705 2.20549
1.9258 1.79452 1.63818 1.48933 1.69989 1.57703 1.51755 1.45273 1.41466 1.38779
1.36746 1.35117 1.33722 1.32484 1.31369 1.30353 1.29415 1.28542 1.27723 1.26952
1.26221 1.25527 1.24866 1.24234 1.2363 1.23048 1.22493 1.21962 1.21398 1.21053
1.20258 3.0571 2.20568 1.92632 1.79556 1.64017 1.49188 1.47864 1.46777 1.41146
1.34911 1.31099 1.28414 1.26401 1.24787 1.23414 1.22212 1.2115 1.202 1.19343
1.1856 1.17841 1.17177 1.16559 1.15983 1.15443 1.14934 1.14454 1.13999 1.13567
1.13166 1.12726 1.12481 1.11855 3.05711 2.20585 1.92681 1.79655 1.64209 1.49446
1.498 1.4839 1.42634 1.36183 1.3225 1.29488 1.27411 1.25742 1.24318 1.23068
1.21958 1.20962 1.20058 1.19229 1.18464 1.17755 1.17092 1.16471 1.15886 1.15334
1.14811 1.14313 1.1384 1.13397 1.1291 1.12645 1.11962 3.05712 2.20598 1.92721
1.79736 1.64374 1.49682 1.51273 1.49454 1.43537 1.36977 1.33006 1.30242 1.28179
1.26526 1.25116 1.23874 1.22769 1.21776 1.20871 1.20039 1.19269 1.18553 1.17884
1.17254 1.16661 1.161 1.15568 1.1506 1.14578 1.14125 1.13626 1.13354 1.12643
3.05713 2.20605 1.92744 1.79784 1.64488 1.49874 1.51699 1.49762 1.43746 1.37104
1.33091 1.3031 1.28242 1.26587 1.25178 1.23941 1.22842 1.21855 1.20957 1.20133
1.1937 1.18662 1.18 1.17377 1.16791 1.16236 1.15711 1.15209 1.14732 1.14285
1.13792 1.13522 1.12827 3.05713 2.20604 1.92743 1.79786 1.64523 1.4999 1.5206
1.49999 1.43858 1.37144 1.33124 1.30362 1.28316 1.2668 1.25287 1.24065 1.22979
1.22001 1.2111 1.20291 1.19532 1.18825 1.18163 1.17541 1.16953 1.16396 1.15869
1.15364 1.14885 1.14435 1.13939 1.13666 1.12961 3.05712 2.20596 1.92717 1.79726
1.64426 1.49967 1.52403 1.502 1.43936 1.37127 1.33084 1.30339 1.28315 1.26696
1.25314 1.24101 1.2302 1.22046 1.21159 1.20342 1.19585 1.1888 1.18219 1.17598
1.17013 1.16458 1.15932 1.15429 1.14952 1.14503 1.14011 1.13739 1.13041 3.05711
2.2058 1.92667 1.79603 1.64143 1.49632 1.52217 1.49333 1.43231 1.3661 1.32685
1.30023 1.28062 1.26495 1.25159 1.23985 1.22939 1.21996 1.21134 1.2034 1.19603
1.18915 1.18269 1.17661 1.17086 1.1654 1.16022 1.15527 1.15056 1.14611 1.14126
1.13854 1.13163 3.05709 2.20566 1.92624 1.79409 1.63735 1.47533 1.4119 1.41946
1.41694 1.41028 1.40298 1.3954 1.38715 1.3768 1.36328 1.34653 1.32789 1.30909
1.29149 1.27589 1.26249 1.25116 1.23935 1.3781 1.34211 1.32645 1.29533 1.27231
1.25518 1.24218 1.23153 1.22217 1.21367 1.20587 1.19864 1.19188 1.18553 1.17953
1.17384 1.16844 1.16328 1.15836 1.15364 1.14914 1.14478 1.14063 1.13667 1.13238
1.12991 1.12373 3.05706 2.2057 1.92749 1.78886 1.69334 1.62585 1.56457 1.51611
1.48119 1.45445 1.43195 1.41218 1.39386 1.37569 1.35666 1.33691 1.31755 1.29926
1.2826 1.26789 1.25546 1.24532 1.23807 1.23552 1.2349 1.23318 1.22981 1.22422
1.21735 1.21051 1.20405 1.19784 1.19182 1.18603 1.18046 1.1751 1.16994 1.16497
1.16018 1.15557 1.15112 1.14683 1.14269 1.1387 1.13481 1.1311 1.12752 1.12366
1.1214 1.11579 3.05705 2.20559 1.92716 1.78772 1.69092 1.62304 1.56727 1.5202
1.48332 1.45417 1.42977 1.40849 1.38914 1.37064 1.35227 1.33389 1.31592 1.29885
1.2831 1.26898 1.25674 1.24655 1.23898 1.23428 1.23095 1.2276 1.2238 1.21891
1.21307 1.20698 1.20102 1.19521 1.18953 1.18402 1.17868 1.17352 1.16853 1.1637
1.15904 1.15453 1.15018 1.14597 1.1419 1.13797 1.13415 1.13049 1.12696 1.12316
1.12092 1.11537 3.05704 2.20546 1.92677 1.7869 1.68931 1.62134 1.56793 1.52252
1.48535 1.45523 1.42988 1.40767 1.38756 1.36866 1.35037 1.33253 1.31526 1.29895
1.28391 1.27039 1.25859 1.24866 1.24081 1.23499 1.23066 1.22671 1.22253 1.21767
1.21214 1.20635 1.20057 1.1949 1.18933 1.18389 1.1786 1.17347 1.16851 1.1637
1.15905 1.15455 1.1502 1.14599 1.14192 1.138 1.13417 1.13052 1.12699 1.1232
1.12095 1.11542 3.05703 2.20536 1.92646 1.78627 1.68828 1.62062 1.56869 1.5244
1.48711 1.45631 1.43024 1.40737 1.38674 1.3676 1.3494 1.33193 1.31521 1.29947
1.28495 1.27184 1.26031 1.25049 1.24241 1.23609 1.231 1.2264 1.22175 1.21674
1.21132 1.2057 1.20005 1.19447 1.18898 1.18359 1.17835 1.17326 1.16831 1.16353
1.15889 1.1544 1.15005 1.14586 1.14179 1.13787 1.13405 1.1304 1.12688 1.1231
1.12086 1.11533 3.05702 2.20528 1.92624 1.78589 1.68777 1.6203 1.56915 1.52552
1.48826 1.4571 1.43061 1.40735 1.38639 1.36706 1.34889 1.33161 1.31521 1.29982
1.28563 1.2728 1.26145 1.25169 1.2435 1.23678 1.23117 1.22612 1.2212 1.21613
1.21082 1.20534 1.19983 1.19435 1.18893 1.18362 1.17843 1.17337 1.16846 1.16369
1.15907 1.15459 1.15026 1.14607 1.14201 1.13809 1.13428 1.13063 1.12711 1.12333
1.12109 1.11557 3.05702 2.20524 1.9261 1.78567 1.68748 1.62015 1.56945 1.52623
1.48903 1.45767 1.43089 1.40735 1.38616 1.36671 1.34855 1.33139 1.31521 1.30006
1.28611 1.27346 1.26224 1.2525 1.24423 1.23729 1.23137 1.22605 1.22094 1.21579
1.2105 1.20508 1.19961 1.19417 1.18879 1.18351 1.17833 1.17329 1.16839 1.16363
1.15901 1.15454 1.15021 1.14602 1.14196 1.13805 1.13424 1.13059 1.12707 1.1233
1.12106 1.11554 3.05703 2.20524 1.92604 1.78555 1.68735 1.62011 1.56959 1.52654
1.48938 1.45792 1.43102 1.40736 1.38608 1.36658 1.34841 1.33132 1.31523 1.3002
1.28634 1.27378 1.26261 1.25288 1.24456 1.23751 1.23145 1.22599 1.22079 1.21561
1.21033 1.20494 1.19952 1.19411 1.18877 1.1835 1.17835 1.17332 1.16843 1.16367
1.15906 1.1546 1.15027 1.14609 1.14203 1.13812 1.13431 1.13067 1.12715 1.12337
1.12114 1.11562 1.01617 0.529963 0.586997 0.665311 0.0586767 0.616824 0.313724 0.219894
0.120258 0.326136 0.138447 0.374885 0.32629 0.501701 0.26566 0.984626 0.88153 0.960739
0.253538 0.376507 0.105655 0.288741 0.166761 0.111536 0.166648 0.410004 0.747668 0.548523
0.929686 0.414732 0.308226 0.474557 0.464864 0.352266 0.68183 0.674723 0.972467 0.234224
0.20767 0.497643 0.258397 0.310106 0.278395 0.390842 0.19948 0.360444 0.586054 0.360166
0.215963 0.419889 0.312501 0.138674 0.271205 0.14079 1.07908 0.600078 1.14762 0.588757
0.971683 0.387041 1.14971 0.561716 0.425323 0.560434 0.464614 0.980575 0.498265 1.35111
0.769591 1.29124 1.17835 0.682246 1.11089 0.787836 1.231 0.572875 0.689673 0.609762
0.23824 0.283627 0.551429 0.519738 0.742941 0.293893 0.804125 0.614426 0.685668 0.807055
0.709393 1.00107 0.88804 1.01107 0.996292 0.286486 0.916051 0.550338 0.914096 0.294407
0.615414 0.888476 1.46017 0.815752 0.803202 1.04425 0.228466 0.380539 0.390699 0.426562
0.292142 0.388703 0.445578 0.392894 0.318822 0.391092 0.998067 1.04503 1.05304 0.990818
0.271846 0.66545 0.505898 0.521065 0.13749 0.0982493 0.109676 0.0423025 0.0388564 0.235259
0.119707 0.181377 0.153793 0.290766 0.538471 0.646255 0.394104 0.23592 0.50078 0.476813
0.172084 0.18187 0.798224 0.785065 0.421771 0.220861 0.600824 0.916339 1.19453 0.502906
0.874353 0.689433 1.08639 1.09022 1.09589 1.05283 0.417487 0.312477 0.309709 0.494653
0.52529 1.13197 0.695022 0.356772 0.631854 0.466649 0.6991 0.954521 0.578882 0.245317
0.344463 1.04076 0.513624 0.894706 1.05619 0.572179 0.446202 0.535658 0.720574 0.492097
0.36749 0.469607 0.258645 0.265313 0.42843 0.732781 0.447973 0.85799 0.0877676 0.0913561
0.470517 0.59635 0.473488 0.562623 0.0707519 0.103374 0.667027 0.805754 1.30525 0.712848
0.591181 1.38577 0.704181 0.772685 0.518159 0.432913 0.228997 0.809822 1.08515 1.41666
0.458865 1.37229 1.43848 1.93985 0.812654 1.65364 1.36033 1.79042 0.816055 0.624096
0.674664 0.742998 0.775193 0.645719 0.556324 0.452101 0.962955 1.16617 0.5466 0.449269
0.221597 1.05216 0.515579 0.942233 0.335346 0.742119 0.878004 0.381475 0.932649 0.953318
0.611414 0.957489 0.998637 0.913624 0.88605 0.940949 0.660387 0.950112 0.955694 0.935538
1.33239 0.826125 0.877969 0.8642 1.23916 1.03491 0.816307 1.16812 1.60817 1.06895
0.877506 1.45595 0.903588 1.15888 0.84301 1.12457 1.16581 0.967312 0.975484 1.50544
1.13367 0.820623 1.02691 0.928333 1.17239 0.81576 1.24495 0.839236 1.52593 0.992625
1.0909 1.59768 1.48832 0.757024 0.47056 0.903112 0.933031 0.927713 1.06929 0.598409
0.919926 0.97651 1.09821 0.694416 0.709815 0.372686 0.902003 0.264179 0.200269 0.747395
0.683331 0.432423 0.376856 0.483909 0.673706 1.08888 1.05088 1.12154 0.774279 1.10022
0.546294 1.04923 0.635922 0.0791142 0.266451 0.106758 0.303354 0.315291 0.340036 0.291991
1.01318 0.826905 0.785235 1.00028 0.414982 0.29691 0.449329 0.291899 0.20828 0.311206
0.450734 0.233173 0.319765 0.973975 0.7412 0.626452 0.718173 0.584063 0.589516 0.690581
0.343843 0.199857 0.572059 0.525472 1.05077 1.02342 0.286504 0.584116 0.416855 0.0644914
0.0605845 0.0703768 0.0569218 0.382037 0.168736 0.243447 0.254677 0.809634 0.652303 1.11787
0.795548 0.659302 1.27567 0.139628 0.306276 0.19505 0.338323 0.150293 0.398139 0.240527
0.408535 0.529373 0.47198 0.928421 0.751465 0.404847 1.26892 0.382104 0.513065 1.19461
0.926585 1.00616 1.33751 1.32843 0.5846 0.378378 0.99982 0.724358 0.799019 1.49944
1.4229 1.30723 1.19945 1.51293 1.25098 0.983753 1.74391 1.73248 0.890636 1.07673
0.841987 0.879509 0.322303 0.253545 0.265969 0.656092 0.709928 0.332346 0.304459 0.317173
0.99349 1.29123 1.02258 1.217 0.276859 0.373345 0.31267 1.0392 0.337001 0.739358
0.271099 0.381526 0.443844 0.278056 0.157638 0.393736 0.572879 0.55071 0.793569 0.743956
0.617254 0.346741 0.238237 0.465079 0.751685 0.826774 0.80642 0.817917 0.385663 0.395402
0.352316 0.286702 0.276222 0.255438 0.52168 0.364564 0.351969 0.430956 0.770074 0.73779
0.799553 0.939457 0.47534 0.213032 0.735658 0.440392 0.974904 0.600608 0.14473 0.367945
0.348673 0.202732 0.611358 0.366228 0.418029 0.473858 0.759371 0.514428 0.674818 0.405793
0.141363 0.339081 0.156554 0.327062 0.286209 0.778903 0.427219 0.583562 0.335219 0.260012
0.640777 0.29017 0.297898 0.428691 0.420957 0.330413 0.36556 0.204077 0.350619 0.423596
0.282417 0.301345 0.542345 0.490071 0.849169 0.337939 0.927885 0.800934 0.376087 1.86299
1.60602 1.71331 1.78737 1.18685 1.24406 1.31247 1.22317 0.67927 1.01617 0.690587
0.879866 1.47211 1.41725 1.51344 1.40701 1.27727 0.966591 1.17161 0.855701 1.30809
0.67658 1.19327 1.09669 0.599756 0.732612 1.18772 1.16446 1.04174 0.662901 0.511415
1.28073 1.10176 1.25671 0.934247 0.585447 0.602538 1.09301 0.718691 1.31434 0.578672
0.337544 0.490168 0.716155 1.15612 0.816361 0.496233 0.648962 0.730735 0.623524 0.984716
1.05518 0.677652 1.01214 0.693311 0.515016 0.58073 0.696117 1.11283 1.18082 1.18537
1.12487 0.867632 0.742072 0.922158 0.533671 0.182855 0.22885 0.265363 0.272636 0.200255
0.273123 0.35975 0.401809 0.30552 0.249751 0.811023 0.237745 0.338952 0.472359 0.329828
0.278394 0.578646 1.61869 1.08409 1.0949 1.62324 0.834299 0.454102 0.61711 0.474475
0.531509 0.364343 0.758668 0.405242 0.422068 0.49317 1.07671 1.37543 0.556957 0.585999
0.997575 0.644423 0.622115 0.781094 1.051 0.99387 0.940938 0.999924 0.83469 0.749274
0.772751 0.7241 0.466152 0.441487 0.89469 0.980884 0.283442 0.437547 1.24955 0.757871
0.795758 0.437939 0.960747 0.551823 0.42347 0.915176 0.367689 0.62761 0.924557 0.400131
0.517051 1.49574 1.16232 1.32813 0.752775 0.445974 0.338009 0.913088 0.999953 1.8599
1.339 1.64727 0.990673 0.440585 0.459633 0.669448 0.349138 0.442361 0.634527 0.415823
0.332128 0.394882 0.457692 0.660722 0.603484 0.774363 0.121101 0.134177 0.240994 0.152968
0.108785 0.17936 0.134446 0.195815 0.202561 0.0843766 0.118702 0.202164 0.244115 0.231981
0.125287 0.368252 0.264214 0.529006 0.230116 0.320393 0.370069 0.346421 0.419473 0.484693
0.523166 0.268382 0.55455 0.581836 0.433542 0.536983 0.360378 0.293499 0.202832 0.269971
0.272049 0.410084 0.248855 0.365733 0.332267 0.270747 0.220296 0.231577 0.406375 0.377845
0.244268 0.209794 0.195771 0.53895 0.49405 0.776717 0.434451 0.359663 0.323368 0.27125
0.389239 0.339109 0.530632 0.584493 0.678492 0.691933 0.86054 0.676067 0.963805 0.502965
0.283873 0.269698 0.463513 0.753869 0.577039 0.141659 0.159762 0.130977 0.168524 0.161848
0.131042 0.16065 0.0660032 0.0523571 0.16399 0.0750629 0.046685 0.0319838 0.144802 0.156437
0.0677291 0.209536 0.208472 0.645379 0.181689 0.222643 0.137322 0.264743 0.0777551 0.0932734
0.1919 0.466217 0.652397 0.771675 0.307857 0.148777 0.183508 0.702062 0.929649 0.856711
0.718812 0.641144 0.744154 0.935592 0.658842 0.793541 0.255987 0.161441 0.590731 0.630923
0.570142 0.838672 0.712487 0.703597 0.744334 0.179735 0.580384 0.759628 0.314996 0.253948
0.410128 0.41009 0.447529 0.368625 0.563024 0.508291 0.4281 1.02948 0.510769 0.92143
0.732546 0.788816 1.88566 0.829277 0.639137 0.927696 0.420127 1.03316 0.385693 0.713573
1.09691 0.418507 0.460838 1.00862 0.354558 0.40738 0.885147 0.572032 0.688445 1.57168
1.10316 1.15504 1.12301 1.11073 0.914172 0.986131 0.701105 0.874198 1.14639 0.596826
0.932459 1.82781 1.64958 1.75803 0.290552 0.592518 0.35843 1.43794 0.563174 1.47843
0.440398 0.454677 0.546445 0.525009 0.515594 1.2377 1.01467 0.59709 0.673592 0.626991