# vtk DataFile Version 2.0
sampleSurface
ASCII
DATASET POLYDATA
POINTS 28107 float
-1324.36 -1350.27 1.5 -1424.05 -1350.27 1.5 -1424.05 -1421.34 1.5 -1324.36 -1421.34
1.5 -1224.68 -1350.27 1.5 -1224.68 -1421.34 1.5 -1125 -1350.27 1.5
-1125 -1421.34 1.5 -1025.31 -1350.27 1.5 -1025.31 -1421.34 1.5 -925.631
-1350.27 1.5 -925.631 -1421.34 1.5 -825.947 -1350.27 1.5 -825.947 -1421.34
1.5 -726.264 -1350.27 1.5 -726.264 -1421.34 1.5 -626.581 -1350.27 1.5
-626.581 -1421.34 1.5 -526.898 -1350.27 1.5 -526.898 -1421.34 1.5 -427.214
-1350.27 1.5 -427.214 -1421.34 1.5 -327.531 -1350.27 1.5 -327.531 -1421.34
1.5 -227.848 -1350.27 1.5 -227.848 -1421.34 1.5 -128.164 -1350.27 1.5
-128.164 -1421.34 1.5 -28.4812 -1350.27 1.5 -28.4811 -1421.34 1.5 71.2021
-1350.27 1.5 71.2021 -1421.34 1.5 170.885 -1350.27 1.5 170.885 -1421.34
1.5 270.569 -1350.27 1.5 270.569 -1421.34 1.5 370.252 -1350.27 1.5
370.252 -1421.34 1.5 469.935 -1350.27 1.5 469.935 -1421.34 1.5 569.619
-1350.27 1.5 569.619 -1421.34 1.5 669.302 -1350.27 1.5 669.302 -1421.34
1.5 768.985 -1350.27 1.5 768.985 -1421.34 1.5 868.669 -1350.27 1.5
868.669 -1421.34 1.5 968.352 -1350.27 1.5 968.352 -1421.34 1.5 1068.04
-1350.27 1.5 1068.04 -1421.34 1.5 1167.72 -1350.27 1.5 1167.72 -1421.34
1.5 1267.4 -1350.27 1.5 1267.4 -1421.34 1.5 1367.09 -1350.27 1.5
1367.09 -1421.34 1.5 1466.77 -1350.27 1.5 1466.77 -1421.34 1.5 1566.45
-1350.27 1.5 1566.45 -1421.34 1.5 1666.14 -1350.27 1.5 1666.14 -1421.34
1.5 1765.82 -1350.27 1.5 1765.82 -1421.34 1.5 1865.5 -1350.27 1.5
1865.5 -1421.34 1.5 1965.19 -1350.27 1.5 1965.19 -1421.34 1.5 2064.87
-1350.27 1.5 2064.87 -1421.34 1.5 2164.55 -1350.27 1.5 2164.55 -1421.34
1.5 2264.24 -1350.27 1.5 2264.24 -1421.34 1.5 2363.92 -1350.27 1.5
2363.92 -1421.34 1.5 2463.6 -1350.27 1.5 2463.6 -1421.34 1.5 2563.29
-1350.27 1.5 2563.29 -1421.34 1.5 2662.97 -1350.27 1.5 2662.97 -1421.34
1.5 2762.65 -1350.27 1.5 2762.65 -1421.34 1.5 2862.34 -1350.27 1.5
2862.34 -1421.34 1.5 2962.02 -1350.27 1.5 2962.02 -1421.34 1.5 3061.7
-1350.27 1.5 3061.7 -1421.34 1.5 3161.39 -1350.27 1.5 3161.39 -1421.34
1.5 3261.07 -1350.27 1.5 3261.07 -1421.34 1.5 3360.75 -1350.27 1.5
3360.75 -1421.34 1.5 3460.44 -1350.27 1.5 3460.44 -1421.34 1.5 3560.12
-1421.34 1.5 3560.12 -1350.27 1.5 -1324.36 -1279.2 1.5 -1424.05 -1279.2
1.5 -1224.68 -1279.2 1.5 -1125 -1279.2 1.5 -1025.31 -1279.2 1.5
-925.631 -1279.2 1.5 -825.947 -1279.2 1.5 -726.264 -1279.2 1.5 -626.581
-1279.2 1.5 -526.898 -1279.2 1.5 -427.214 -1279.2 1.5 -327.531 -1279.2
1.5 -227.848 -1279.2 1.5 -128.164 -1279.2 1.5 -28.4812 -1279.2 1.5
71.2021 -1279.2 1.5 170.885 -1279.2 1.5 270.569 -1279.2 1.5 370.252
-1279.2 1.5 469.935 -1279.2 1.5 569.619 -1279.2 1.5 669.302 -1279.2
1.5 768.985 -1279.2 1.5 868.669 -1279.2 1.5 968.352 -1279.2 1.5
1068.04 -1279.2 1.5 1167.72 -1279.2 1.5 1267.4 -1279.2 1.5 1367.09
-1279.2 1.5 1466.77 -1279.2 1.5 1566.45 -1279.2 1.5 1666.14 -1279.2
1.5 1765.82 -1279.2 1.5 1865.5 -1279.2 1.5 1965.19 -1279.2 1.5
2064.87 -1279.2 1.5 2164.55 -1279.2 1.5 2264.24 -1279.2 1.5 2363.92
-1279.2 1.5 2463.6 -1279.2 1.5 2563.29 -1279.2 1.5 2662.97 -1279.2
1.5 2762.65 -1279.2 1.5 2862.34 -1279.2 1.5 2962.02 -1279.2 1.5
3061.7 -1279.2 1.5 3161.39 -1279.2 1.5 3261.07 -1279.2 1.5 3360.75
-1279.2 1.5 3460.44 -1279.2 1.5 3560.12 -1279.2 1.5 -1324.36 -1208.14
1.5 -1424.05 -1208.14 1.5 -1224.68 -1208.14 1.5 -1125 -1208.14 1.5
-1025.31 -1208.14 1.5 -925.631 -1208.14 1.5 -825.947 -1208.14 1.5 -726.264
-1208.14 1.5 -626.581 -1208.14 1.5 -526.898 -1208.14 1.5 -427.214 -1208.14
1.5 -327.531 -1208.14 1.5 -227.848 -1208.14 1.5 -128.164 -1208.14 1.5
-28.4812 -1208.14 1.5 71.2021 -1208.14 1.5 170.885 -1208.14 1.5 270.569
-1208.14 1.5 370.252 -1208.14 1.5 469.935 -1208.14 1.5 569.619 -1208.14
1.5 669.302 -1208.14 1.5 768.985 -1208.14 1.5 868.669 -1208.14 1.5
968.352 -1208.14 1.5 1068.04 -1208.14 1.5 1167.72 -1208.14 1.5 1267.4
-1208.14 1.5 1367.09 -1208.14 1.5 1466.77 -1208.14 1.5 1566.45 -1208.14
1.5 1666.14 -1208.14 1.5 1765.82 -1208.14 1.5 1865.5 -1208.14 1.5
1965.19 -1208.14 1.5 2064.87 -1208.14 1.5 2164.55 -1208.14 1.5 2264.24
-1208.14 1.5 2363.92 -1208.14 1.5 2463.6 -1208.14 1.5 2563.29 -1208.14
1.5 2662.97 -1208.14 1.5 2762.65 -1208.14 1.5 2862.34 -1208.14 1.5
2962.02 -1208.14 1.5 3061.7 -1208.14 1.5 3161.39 -1208.14 1.5 3261.07
-1208.14 1.5 3360.75 -1208.14 1.5 3460.44 -1208.14 1.5 3560.12 -1208.14
1.5 -1324.36 -1137.07 1.5 -1424.05 -1137.07 1.5 -1224.68 -1137.07 1.5
-1125 -1137.07 1.5 -1025.31 -1137.07 1.5 -925.631 -1137.07 1.5 -825.947
-1137.07 1.5 -726.264 -1137.07 1.5 -626.581 -1137.07 1.5 -526.898 -1137.07
1.5 -427.214 -1137.07 1.5 -327.531 -1137.07 1.5 -227.848 -1137.07 1.5
-128.164 -1137.07 1.5 -28.4812 -1137.07 1.5 71.2021 -1137.07 1.5 170.885
-1137.07 1.5 270.569 -1137.07 1.5 370.252 -1137.07 1.5 469.935 -1137.07
1.5 569.619 -1137.07 1.5 669.302 -1137.07 1.5 768.985 -1137.07 1.5
868.669 -1137.07 1.5 968.352 -1137.07 1.5 1068.04 -1137.07 1.5 1167.72
-1137.07 1.5 1267.4 -1137.07 1.5 1367.09 -1137.07 1.5 1466.77 -1137.07
1.5 1566.45 -1137.07 1.5 1666.14 -1137.07 1.5 1765.82 -1137.07 1.5
1865.5 -1137.07 1.5 1965.19 -1137.07 1.5 2064.87 -1137.07 1.5 2164.55
-1137.07 1.5 2264.24 -1137.07 1.5 2363.92 -1137.07 1.5 2463.6 -1137.07
1.5 2563.29 -1137.07 1.5 2662.97 -1137.07 1.5 2762.65 -1137.07 1.5
2862.34 -1137.07 1.5 2962.02 -1137.07 1.5 3061.7 -1137.07 1.5 3161.39
-1137.07 1.5 3261.07 -1137.07 1.5 3360.75 -1137.07 1.5 3460.44 -1137.07
1.5 3560.12 -1137.07 1.5 -1324.36 -1066 1.5 -1424.05 -1066 1.5
-1224.68 -1066 1.5 -1125 -1066 1.5 -1025.31 -1066 1.5 -925.631
-1066 1.5 -825.947 -1066 1.5 -726.264 -1066 1.5 -626.581 -1066
1.5 -526.898 -1066 1.5 -427.214 -1066 1.5 -327.531 -1066 1.5
-227.848 -1066 1.5 -128.164 -1066 1.5 -28.4812 -1066 1.5 71.2021
-1066 1.5 170.885 -1066 1.5 270.569 -1066 1.5 370.252 -1066
1.5 469.935 -1066 1.5 569.619 -1066 1.5 669.302 -1066 1.5
768.985 -1066 1.5 868.669 -1066 1.5 968.352 -1066 1.5 1068.04
-1066 1.5 1167.72 -1066 1.5 1267.4 -1066 1.5 1367.09 -1066
1.5 1466.77 -1066 1.5 1566.45 -1066 1.5 1666.14 -1066 1.5
1765.82 -1066 1.5 1865.5 -1066 1.5 1965.19 -1066 1.5 2064.87
-1066 1.5 2164.55 -1066 1.5 2264.24 -1066 1.5 2363.92 -1066
1.5 2463.6 -1066 1.5 2563.29 -1066 1.5 2662.97 -1066 1.5
2762.65 -1066 1.5 2862.34 -1066 1.5 2962.02 -1066 1.5 3061.7
-1066 1.5 3161.39 -1066 1.5 3261.07 -1066 1.5 3360.75 -1066
1.5 3460.44 -1066 1.5 3560.12 -1066 1.5 -1324.36 -994.936 1.5
-1424.05 -994.936 1.5 -1224.68 -994.936 1.5 -1125 -994.936 1.5 -1025.31
-994.936 1.5 -925.631 -994.936 1.5 -825.947 -994.936 1.5 -726.264 -994.936
1.5 -626.581 -994.936 1.5 -526.898 -994.936 1.5 -427.214 -994.936 1.5
-327.531 -994.936 1.5 -227.848 -994.936 1.5 -128.164 -994.936 1.5 -28.4812
-994.936 1.5 71.2021 -994.936 1.5 170.885 -994.936 1.5 270.569 -994.936
1.5 370.252 -994.936 1.5 469.935 -994.936 1.5 569.619 -994.936 1.5
669.302 -994.936 1.5 768.985 -994.936 1.5 868.669 -994.936 1.5 968.352
-994.936 1.5 1068.04 -994.936 1.5 1167.72 -994.936 1.5 1267.4 -994.936
1.5 1367.09 -994.936 1.5 1466.77 -994.936 1.5 1566.45 -994.936 1.5
1666.14 -994.936 1.5 1765.82 -994.936 1.5 1865.5 -994.936 1.5 1965.19
-994.936 1.5 2064.87 -994.936 1.5 2164.55 -994.936 1.5 2264.24 -994.936
1.5 2363.92 -994.936 1.5 2463.6 -994.936 1.5 2563.29 -994.936 1.5
2662.97 -994.936 1.5 2762.65 -994.936 1.5 2862.34 -994.936 1.5 2962.02
-994.936 1.5 3061.7 -994.936 1.5 3161.39 -994.936 1.5 3261.07 -994.936
1.5 3360.75 -994.936 1.5 3460.44 -994.936 1.5 3560.12 -994.936 1.5
-1324.36 -923.869 1.5 -1424.05 -923.869 1.5 -1224.68 -923.869 1.5 -1125
-923.869 1.5 -1025.31 -923.869 1.5 -925.631 -923.869 1.5 -825.947 -923.869
1.5 -875.789 -923.869 1.5 -726.264 -923.869 1.5 -776.106 -923.869 1.5
-626.581 -923.869 1.5 -676.422 -923.869 1.5 -526.898 -923.869 1.5 -576.739
-923.869 1.5 -427.214 -923.869 1.5 -477.056 -923.869 1.5 -327.531 -923.869
1.5 -377.373 -923.869 1.5 -227.848 -923.869 1.5 -277.689 -923.869 1.5
-128.164 -923.869 1.5 -178.006 -923.869 1.5 -28.4811 -923.869 1.5 -78.3227
-923.869 1.5 71.2022 -923.869 1.5 21.3606 -923.869 1.5 170.885 -923.869
1.5 121.044 -923.869 1.5 270.569 -923.869 1.5 220.727 -923.869 1.5
370.252 -923.869 1.5 320.41 -923.869 1.5 469.935 -923.869 1.5 420.094
-923.869 1.5 569.619 -923.869 1.5 519.777 -923.869 1.5 669.302 -923.869
1.5 619.46 -923.869 1.5 768.985 -923.869 1.5 719.144 -923.869 1.5
868.669 -923.869 1.5 818.827 -923.869 1.5 968.352 -923.869 1.5 918.511
-923.869 1.5 1068.04 -923.869 1.5 1167.72 -923.869 1.5 1267.4 -923.869
1.5 1367.08 -923.869 1.5 1466.77 -923.869 1.5 1566.45 -923.869 1.5
1666.13 -923.869 1.5 1765.82 -923.869 1.5 1865.5 -923.869 1.5 1965.19
-923.869 1.5 2064.87 -923.869 1.5 2164.55 -923.869 1.5 2264.24 -923.869
1.5 2363.92 -923.869 1.5 2463.6 -923.869 1.5 2563.29 -923.869 1.5
2662.97 -923.869 1.5 2762.65 -923.869 1.5 2862.34 -923.869 1.5 2962.02
-923.869 1.5 3061.7 -923.869 1.5 3161.39 -923.869 1.5 3261.07 -923.869
1.5 3360.75 -923.869 1.5 3460.44 -923.869 1.5 3560.12 -923.869 1.5
-1324.36 -852.802 1.5 -1424.05 -852.802 1.5 -1224.68 -852.802 1.5 -1125
-852.802 1.5 -1025.31 -852.802 1.5 -925.631 -888.336 1.5 -925.631 -852.802
1.5 -875.789 -888.336 1.5 -776.106 -888.336 1.5 -801.027 -888.336 1.5
-825.947 -888.336 1.5 -676.422 -888.336 1.5 -701.343 -888.336 1.5 -726.264
-888.336 1.5 -576.739 -888.336 1.5 -601.66 -888.336 1.5 -626.581 -888.336
1.5 -477.056 -888.336 1.5 -501.977 -888.336 1.5 -526.898 -888.336 1.5
-377.373 -888.336 1.5 -402.293 -888.336 1.5 -427.214 -888.336 1.5 -277.689
-888.336 1.5 -302.61 -888.336 1.5 -327.531 -888.336 1.5 -178.006 -888.336
1.5 -202.927 -888.336 1.5 -227.848 -888.336 1.5 -78.3226 -888.336 1.5
-103.243 -888.336 1.5 -128.164 -888.336 1.5 21.3607 -888.336 1.5 -3.56012
-888.336 1.5 -28.4809 -888.336 1.5 121.044 -888.336 1.5 96.1232 -888.336
1.5 71.2024 -888.336 1.5 220.727 -888.336 1.5 195.807 -888.336 1.5
170.886 -888.336 1.5 320.411 -888.336 1.5 295.49 -888.336 1.5 270.569
-888.336 1.5 420.094 -888.336 1.5 395.173 -888.336 1.5 370.252 -888.336
1.5 519.777 -888.336 1.5 494.856 -888.336 1.5 469.936 -888.336 1.5
[...]
CELL_DATA 27354
FIELD attributes 2
k 1 27354 float
3.14095 2.2889 1.98552 1.83352 1.73054 1.66056 1.60846 1.56444 1.52637 1.49407 1.4665
1.44236 1.42073 1.40099 1.38266 1.36539 1.34906 1.33368 1.31933 1.30614 1.29425
1.28375 1.27463 1.2668 1.26003 1.25397 1.24826 1.24264 1.23695 1.2312 1.22541
1.21966 1.21398 1.2084 1.20294 1.1976 1.19241 1.18737 1.18247 1.17772 1.17311
1.16864 1.16431 1.16013 1.15606 1.15213 1.14841 1.14424 1.14195 1.13601 3.14094
2.2889 1.98558 1.83365 1.73069 1.66064 1.60835 1.56413 1.52601 1.49379 1.46635
1.44233 1.42081 1.40114 1.38282 1.36552 1.34912 1.33363 1.31917 1.30589 1.29393
1.2834 1.2743 1.26657 1.25994 1.25401 1.2484 1.24282 1.23713 1.23133 1.22551
1.21973 1.21402 1.20841 1.20293 1.19759 1.19238 1.18733 1.18242 1.17767 1.17305
1.16859 1.16426 1.16007 1.156 1.15207 1.14835 1.14418 1.14189 1.13595 3.14094
2.28893 1.98572 1.8339 1.73101 1.66084 1.60811 1.56346 1.52523 1.4932 1.46602
1.44228 1.421 1.40149 1.38322 1.36586 1.34928 1.33355 1.31884 1.30535 1.29322
1.28261 1.27357 1.26601 1.25965 1.25401 1.24861 1.24313 1.23743 1.23159 1.22572
1.2199 1.21416 1.20853 1.20303 1.19767 1.19246 1.18739 1.18248 1.17772 1.1731
1.16863 1.1643 1.16011 1.15603 1.1521 1.14837 1.14419 1.1419 1.13595 3.14094
2.28901 1.98595 1.83432 1.7316 1.66126 1.60774 1.56238 1.52407 1.49236 1.4656
1.44226 1.42134 1.40206 1.38385 1.36636 1.34954 1.33348 1.31843 1.30461 1.29224
1.28151 1.27253 1.2653 1.25941 1.2542 1.24911 1.24372 1.23794 1.23195 1.22596
1.22004 1.21422 1.20853 1.20298 1.19758 1.19234 1.18726 1.18233 1.17756 1.17294
1.16846 1.16412 1.15994 1.15586 1.15193 1.1482 1.14403 1.14173 1.13579 3.14095
2.28912 1.98627 1.83497 1.73274 1.66219 1.60718 1.56058 1.52228 1.49122 1.46516
1.44247 1.42208 1.40314 1.38498 1.36727 1.34998 1.33337 1.31775 1.30344 1.2907
1.27976 1.27089 1.26405 1.25887 1.25435 1.2498 1.24462 1.23875 1.23259 1.22646
1.22045 1.21456 1.20881 1.20322 1.19779 1.19253 1.18742 1.18248 1.17769 1.17305
1.16856 1.16421 1.16001 1.15592 1.15198 1.14824 1.14404 1.14174 1.13577 3.14096
2.28924 1.98663 1.83577 1.73447 1.66414 1.6068 1.55841 1.5203 1.49016 1.46505
1.44326 1.42366 1.40524 1.38718 1.36914 1.35125 1.3339 1.31754 1.3025 1.28918
1.27788 1.26912 1.26327 1.25902 1.25511 1.25106 1.24595 1.2398 1.23336 1.22704
1.22091 1.21492 1.20911 1.20347 1.19802 1.19273 1.18762 1.18267 1.17789 1.17325
1.16877 1.16442 1.16023 1.15614 1.1522 1.14846 1.14427 1.14197 1.13602 3.14097
2.28931 1.98686 1.83686 1.73679 1.66768 1.60465 1.55457 1.51837 1.49078 1.46765
1.44742 1.42897 1.4111 1.39286 1.37379 1.35455 1.33589 1.31842 1.30253 1.28868
1.27727 1.26862 1.26464 1.26305 1.26076 1.25727 1.25149 1.24424 1.23699 1.23015
1.22361 1.21728 1.21117 1.20528 1.1996 1.19412 1.18884 1.18375 1.17883 1.17408
1.16949 1.16505 1.16077 1.1566 1.15259 1.14879 1.14451 1.14218 1.1361 3.141
2.28927 1.98504 1.84307 1.67582 1.53921 1.58954 1.55654 1.52692 1.50433 1.48525
1.46848 1.45258 1.43602 1.41766 1.39737 1.3761 1.3552 1.33579 1.31858 1.30406
1.29248 1.28924 1.25209 1.37599 1.36076 1.32849 1.30342 1.2847 1.27057 1.25915
1.24918 1.24015 1.23186 1.22418 1.217 1.21025 1.20388 1.19783 1.19208 1.18658
1.18133 1.1763 1.17148 1.16682 1.16235 1.15816 1.15343 1.15088 1.14425 3.14101
2.28939 1.98536 1.84482 1.67985 1.51796 1.54437 1.53439 1.47544 1.40464 1.36173
1.33259 1.31141 1.29469 1.2805 1.26801 1.25687 1.24682 1.23762 1.22915 1.22127
1.21392 1.20702 1.20051 1.19436 1.18851 1.18297 1.17766 1.17258 1.16786 1.16252
1.15971 1.15226 3.14102 2.28953 1.98584 1.84604 1.68295 1.52581 1.56328 1.54463
1.48382 1.41091 1.36671 1.33673 1.31495 1.29776 1.28316 1.27032 1.25888 1.24856
1.23914 1.23047 1.22243 1.21492 1.20788 1.20125 1.19499 1.18905 1.18341 1.17803
1.17287 1.1681 1.16267 1.15983 1.15231 3.14103 2.28961 1.98611 1.84666 1.68407
1.52735 1.55791 1.54198 1.48238 1.41061 1.3668 1.33671 1.31468 1.29726 1.28246
1.26945 1.25785 1.2474 1.23788 1.22913 1.22101 1.21345 1.20637 1.19971 1.19343
1.18748 1.18183 1.17644 1.17127 1.1665 1.16104 1.15822 1.15064 3.14103 2.28961
1.98611 1.84667 1.68382 1.527 1.55278 1.53989 1.48149 1.41055 1.36708 1.33708
1.31506 1.29766 1.28287 1.26985 1.25823 1.24776 1.23821 1.22943 1.2213 1.21372
1.20663 1.19996 1.19366 1.18769 1.18202 1.17661 1.17142 1.16663 1.16114 1.1583
1.15071 3.14102 2.28954 1.98587 1.84619 1.6827 1.52556 1.5452 1.53458 1.47717
1.40741 1.3645 1.33464 1.31258 1.29508 1.2802 1.26709 1.25539 1.24486 1.23528
1.22646 1.21831 1.21072 1.20362 1.19695 1.19066 1.1847 1.17905 1.17366 1.16849
1.16372 1.15824 1.15542 1.1478 3.14101 2.2894 1.98544 1.84533 1.68098 1.52342
1.5382 1.52938 1.47329 1.40513 1.36326 1.33387 1.31186 1.29424 1.27917 1.26587
1.25399 1.24329 1.23354 1.22458 1.2163 1.20859 1.20139 1.19463 1.18826 1.18222
1.17651 1.17106 1.16583 1.16102 1.15548 1.15264 1.14496 3.14099 2.28921 1.98489
1.84424 1.67888 1.52082 1.51447 1.50432 1.44885 1.38186 1.34111 1.31239 1.29073
1.27334 1.25847 1.24532 1.2336 1.22306 1.21348 1.2047 1.1966 1.18908 1.18206
1.1755 1.16932 1.16348 1.15796 1.15271 1.14767 1.14306 1.13771 1.13503 1.12763
3.14098 2.28901 1.98428 1.84302 1.6766 1.51795 1.45292 1.40604 1.3654 1.31386
1.28114 1.25705 1.23898 1.22476 1.21272 1.2021 1.19266 1.18421 1.17656 1.16958
1.16316 1.15722 1.1517 1.14654 1.14169 1.13712 1.13281 1.1287 1.12476 1.12117
1.11696 1.11483 1.10898 3.14096 2.28879 1.98366 1.84181 1.67432 1.51502 0.576419
1.42345 1.58413 1.52672 1.46079 1.42047 1.3901 1.36664 1.34774 1.3315 1.31701
1.30399 1.29219 1.28141 1.27145 1.2622 1.25355 1.24543 1.23775 1.23048 1.22357
1.21697 1.21067 1.20457 1.199 1.19254 1.18906 1.18006 3.14095 2.2886 1.98309
1.84071 1.67228 1.5123 1.74948 1.40966 1.3541 1.29457 1.25547 1.22449 1.20047
1.18162 1.16601 1.15262 1.14105 1.13095 1.12203 1.11406 1.10688 1.10035 1.09437
1.08886 1.08375 1.07899 1.07454 1.07036 1.06639 1.06281 1.0587 1.05668 1.05114
3.14093 2.28845 1.98264 1.83984 1.67063 1.51002 0.905816 0.961738 0.994038 0.995789
0.990455 0.981537 0.9752 0.970774 0.967279 0.9644 0.962123 0.960383 0.959069 0.958096
0.957404 0.956935 0.956647 0.956501 0.956477 0.956517 0.956641 0.956785 0.957028 0.957163
0.957549 0.957552 0.957532 3.14093 2.28836 1.98236 1.83929 1.66957 1.50843 1.34547
1.76748 1.68484 1.58445 1.51891 1.47243 1.43926 1.41484 1.39565 1.37987 1.36657
1.35515 1.34512 1.33614 1.32799 1.32048 1.31349 1.30692 1.3007 1.29475 1.28908
1.28357 1.27832 1.27317 1.26794 1.26425 1.25657 3.14093 2.28833 1.98227 1.83911
1.66923 1.5077 2.29809 2.03498 1.94102 1.82691 1.7554 1.7046 1.66664 1.63648
1.61087 1.58831 1.56811 1.5498 1.53304 1.51752 1.50303 1.48943 1.47661 1.46446
1.45291 1.4419 1.4314 1.42133 1.41167 1.40261 1.39286 1.38673 1.3735 3.14093
2.28837 1.98239 1.83934 1.66963 1.50795 1.12766 1.10847 1.10666 1.09305 1.07875
1.06855 1.0618 1.05728 1.05374 1.05072 1.04816 1.04599 1.04411 1.04246 1.04099
1.03967 1.03848 1.03738 1.03637 1.03543 1.03456 1.03371 1.03298 1.03218 1.03155
1.03103 1.02963 3.14094 2.28847 1.9827 1.83994 1.67077 1.50915 1.03567 1.23937
1.20914 1.16626 1.13723 1.11499 1.09841 1.08583 1.07564 1.06704 1.05973 1.05345
1.048 1.0432 1.03894 1.03513 1.03168 1.02854 1.02567 1.02302 1.02058 1.0183
1.01618 1.01424 1.01214 1.01102 1.00813 3.14095 2.28863 1.98317 1.84086 1.67251
1.51119 1.39611 1.53415 1.49702 1.44563 1.41345 1.39053 1.37326 1.35952 1.34758
1.33666 1.32657 1.31718 1.30834 1.29995 1.29197 1.28434 1.27704 1.27003 1.26328
1.25677 1.25051 1.24446 1.23857 1.2331 1.22694 1.22334 1.21468 3.14097 2.28882
1.98375 1.842 1.67469 1.51385 1.92182 1.76199 1.6883 1.59768 1.5408 1.50023
1.46983 1.44568 1.42528 1.40738 1.39146 1.37713 1.36412 1.35218 1.34115 1.3309
1.32132 1.31233 1.30385 1.29583 1.28822 1.28098 1.27404 1.26764 1.26057 1.25642
1.24691 3.14098 2.28904 1.98439 1.84326 1.67709 1.51688 1.46065 1.4763 1.4299
1.37074 1.3343 1.30885 1.2902 1.27556 1.26312 1.25213 1.24231 1.23344 1.22536
1.21792 1.21103 1.2046 1.19858 1.1929 1.18754 1.18246 1.17764 1.17302 1.16864
1.16453 1.15996 1.15748 1.1509 3.141 2.28924 1.98501 1.84448 1.67947 1.52001
1.50981 1.50202 1.44654 1.37938 1.33795 1.30885 1.2872 1.27001 1.25542 1.24261
1.23124 1.22105 1.2118 1.20334 1.19554 1.1883 1.18156 1.17524 1.1693 1.1637
1.15842 1.1534 1.1486 1.1442 1.13919 1.13661 1.12979 3.14102 2.28941 1.98553
1.84553 1.68157 1.52294 1.54124 1.52794 1.47231 1.40377 1.36115 1.3312 1.30896
1.2913 1.27628 1.26306 1.25127 1.24065 1.23099 1.2221 1.21389 1.20625 1.1991
1.19238 1.18606 1.18007 1.17441 1.169 1.16384 1.15908 1.15363 1.15085 1.14318
3.14102 2.28953 1.98587 1.84621 1.6831 1.52536 1.54917 1.53262 1.47521 1.40514
1.36193 1.33197 1.30999 1.29267 1.27801 1.26515 1.25371 1.24343 1.23407 1.22546
1.2175 1.21008 1.20313 1.19661 1.19045 1.18461 1.17908 1.1738 1.16875 1.16408
1.15876 1.156 1.14868 3.14103 2.28956 1.98596 1.84641 1.68375 1.52691 1.5553
1.53727 1.47861 1.4077 1.36436 1.33454 1.31268 1.2954 1.28071 1.2678 1.2563
1.24594 1.23649 1.22779 1.21973 1.21222 1.20518 1.19856 1.19231 1.18639 1.18078
1.17542 1.17031 1.16557 1.16018 1.15738 1.14981 3.14102 2.28951 1.9858 1.84599
1.68296 1.52687 1.55981 1.53987 1.47982 1.40776 1.36402 1.33427 1.31263 1.29554
1.28104 1.26832 1.25699 1.24678 1.23748 1.22893 1.221 1.21361 1.20668 1.20016
1.194 1.18817 1.18263 1.17735 1.1723 1.16761 1.16232 1.15953 1.1522 3.14101
2.2894 1.98542 1.84492 1.68019 1.52345 1.55783 1.52935 1.47125 1.40135 1.35899
1.33021 1.30929 1.29279 1.27879 1.26649 1.25551 1.2456 1.23654 1.22819 1.22043
1.21318 1.20638 1.19996 1.19389 1.18812 1.18264 1.1774 1.17239 1.16773 1.16248
1.15969 1.15232 3.141 2.28933 1.98518 1.84332 1.67634 1.50049 1.4357 1.45032
1.44817 1.44354 1.43853 1.43313 1.42645 1.41642 1.40169 1.38238 1.36095 1.3396
1.31986 1.30248 1.28768 1.27517 1.26229 1.411 1.37113 1.35647 1.32502 1.30041
1.28203 1.26816 1.25694 1.24715 1.23827 1.23012 1.22257 1.21552 1.2089 1.20263
1.19669 1.19104 1.18564 1.18049 1.17555 1.17083 1.16626 1.16189 1.15777 1.15315
1.15065 1.14415 3.14097 2.28938 1.98707 1.83731 1.73747 1.66881 1.60645 1.55721
1.52224 1.49587 1.47394 1.45463 1.43628 1.41715 1.39615 1.37403 1.35221 1.33174
1.31323 1.29699 1.28325 1.27222 1.26407 1.26056 1.25943 1.25751 1.25435 1.24885
1.24184 1.23479 1.22813 1.22175 1.21557 1.20959 1.20384 1.19829 1.19294 1.18777
1.18278 1.17797 1.17331 1.16881 1.16446 1.16026 1.15618 1.15224 1.14851 1.14432
1.14203 1.13604 3.14097 2.28933 1.98689 1.83631 1.73532 1.66532 1.60852 1.56083
1.52357 1.49438 1.47017 1.44902 1.42949 1.41027 1.39054 1.37037 1.35048 1.33156
1.31416 1.29863 1.28518 1.274 1.26547 1.25992 1.25598 1.25238 1.2486 1.24372
1.23779 1.23153 1.22538 1.21938 1.21353 1.20783 1.20231 1.19696 1.19178 1.18677
1.18191 1.17721 1.17267 1.16826 1.164 1.15989 1.15587 1.15201 1.14834 1.14424
1.14197 1.13612 3.14096 2.28922 1.98656 1.83552 1.73362 1.66347 1.60897 1.56299
1.5254 1.49507 1.46966 1.44736 1.42691 1.40728 1.38781 1.36844 1.34951 1.33156
1.31501 1.30015 1.28716 1.27621 1.26746 1.26081 1.25587 1.25159 1.24728 1.24233
1.23666 1.23068 1.22471 1.21885 1.2131 1.20748 1.20201 1.1967 1.19154 1.18655
1.1817 1.17701 1.17247 1.16807 1.1638 1.15968 1.15567 1.1518 1.14813 1.14402
1.14175 1.13587 3.14095 2.28912 1.98626 1.83491 1.73252 1.66258 1.60954 1.56474
1.52703 1.49591 1.46963 1.44652 1.42545 1.40557 1.3863 1.36749 1.34929 1.33205
1.31611 1.30171 1.28902 1.27817 1.26923 1.26212 1.25642 1.25141 1.24654 1.24136
1.23578 1.22996 1.22413 1.21836 1.21269 1.20713 1.2017 1.19642 1.19129 1.18631
1.18148 1.1768 1.17227 1.16788 1.16362 1.15951 1.15551 1.15165 1.14799 1.1439
1.14164 1.13579 3.14094 2.28905 1.98604 1.83451 1.73195 1.66218 1.60991 1.56577
1.52807 1.49652 1.4697 1.4461 1.42464 1.40456 1.38539 1.36688 1.3491 1.33231
1.31678 1.3027 1.29023 1.27946 1.27041 1.26293 1.25672 1.25126 1.24606 1.24077
1.23526 1.2296 1.22389 1.21822 1.21262 1.20713 1.20175 1.19651 1.19141 1.18645
1.18164 1.17697 1.17245 1.16807 1.16381 1.15971 1.15571 1.15185 1.14819 1.1441
1.14183 1.13598 3.14094 2.28901 1.98591 1.83427 1.73165 1.66199 1.61015 1.56641
1.52876 1.49696 1.4698 1.44587 1.42415 1.40395 1.3848 1.36648 1.34901 1.33253
1.31728 1.30342 1.29109 1.28036 1.27122 1.26353 1.25702 1.25125 1.24582 1.24043
1.23492 1.2293 1.22364 1.21801 1.21245 1.20697 1.20162 1.19639 1.1913 1.18635
1.18154 1.17688 1.17236 1.16798 1.16374 1.15963 1.15564 1.15179 1.14813 1.14405
1.14178 1.13594 3.14095 2.28902 1.98586 1.83415 1.73151 1.66192 1.61026 1.56669
1.52907 1.49716 1.46984 1.44576 1.42392 1.40367 1.38455 1.36632 1.34897 1.33264
1.31751 1.30375 1.29147 1.28076 1.27158 1.26379 1.25713 1.25122 1.24569 1.24025
1.23475 1.22916 1.22354 1.21795 1.21241 1.20696 1.20162 1.19641 1.19133 1.18639
1.18159 1.17694 1.17242 1.16805 1.1638 1.1597 1.1557 1.15186 1.1482 1.14412
1.14185 1.13601 0.599802 0.0700661 0.823786 0.32468 0.0777111 0.86859 1.00937 0.399678
0.227609 1.00479 0.521356 0.552116 0.928685 0.171654 0.326545 0.637424 0.59912 0.217716
1.2435 0.958879 0.619242 0.762558 0.536978 0.470287 0.477476 0.616569 0.856303 0.240283
0.985884 1.004 0.859059 1.01621 1.03005 0.488702 0.691164 1.04489 1.3944 1.29926
1.35631 0.17947 0.98672 1.06594 1.0727 1.04317 0.428063 0.475971 0.0416577 0.147765
0.588749 0.956035 0.503656 1.06074 1.19836 0.88779 0.566942 1.17029 1.28726 2.05259
0.14148 0.174893 0.928676 0.231968 1.36621 0.182673 0.611989 0.707649 0.787487 0.596608
0.688988 0.671547 1.10267 1.14092 1.25593 0.613632 0.243953 0.259716 0.232225 0.330592
0.596268 0.314388 0.383293 0.31742 0.190073 0.75675 0.668073 0.956978 1.06798 0.155735
0.164013 1.04361 0.771319 0.574027 0.969226 0.708666 0.964766 0.905253 0.992488 0.651001
0.614245 0.266713 1.57231 1.54612 0.990879 1.61588 1.02358 1.07104 1.2299 0.587556
0.407679 0.637916 0.813638 0.262236 0.886612 0.619998 0.527254 0.190829 0.729697 1.07976
1.06437 1.1328 0.863964 0.792683 0.523098 0.7665 0.783249 0.74551 0.499886 0.279802
0.622177 0.547916 0.739029 0.791297 0.0460678 0.597385 0.147706 0.255235 0.239734 0.221226
0.402898 0.132791 0.333454 0.427606 0.139327 0.131029 0.175076 0.622654 0.571539 0.0695431
0.0645705 0.0910444 0.199747 0.130065 0.0300202 0.10516 0.192455 0.0565125 0.50597 0.506177
0.20956 0.206238 0.0738943 0.196404 0.182686 0.08956 0.573707 0.929702 1.0595 1.2316
0.477748 0.945578 1.11441 0.69046 0.481124 0.753315 0.35199 0.380222 0.607541 0.837175
1.32838 0.585253 1.11291 0.659531 1.02627 0.73514 1.13039 0.483627 0.535744 0.461288
0.318604 0.580975 0.636339 1.45471 0.817129 0.942458 1.29003 0.591736 0.52841 0.264951
0.237171 1.15215 1.10249 0.688555 1.19792 0.379413 0.689285 0.996039 0.5802 1.14251
0.755926 0.7641 0.624577 0.449443 0.916803 0.77089 0.676804 1.06487 0.33421 0.328521
0.828334 0.518035 0.256974 0.294543 0.633718 0.441639 0.788495 0.202916 0.358848 0.410977
0.49842 0.525603 0.740031 0.376509 0.665452 0.772753 0.741965 0.752251 0.293767 0.599721
1.03348 1.01717 0.720422 0.344958 0.562062 0.615231 0.582459 0.682521 0.321515 0.374032
0.45478 0.545997 0.659569 0.822266 0.475057 0.0396892 0.0560531 0.112909 0.0261949 0.136465
0.437785 0.29955 0.312418 0.428265 0.274218 0.302566 0.444112 0.402022 0.170072 0.752343
0.633268 0.864264 0.391042 0.386514 0.65887 0.372712 0.57541 0.873451 0.556041 0.371835
0.614548 0.819094 1.45514 1.29668 0.966863 0.607841 0.407816 0.5972 0.281606 0.168508
0.277842 0.217378 0.833322 0.906054 0.220612 0.272673 0.178143 0.368173 0.266435 0.746622
0.977357 0.603634 0.355543 0.696046 0.866983 0.874527 0.665088 0.387708 0.119256 0.447883
0.690939 0.608625 0.471669 0.191291 0.51321 0.424928 0.884224 0.598062 1.11962 0.663265
0.612902 0.115753 0.147928 0.157107 0.0421499 0.324606 0.27728 0.340252 0.326357 0.477578
0.593277 0.596036 0.685388 0.317778 0.776885 0.144792 0.21465 0.368058 0.238922 0.377844
0.53875 0.291433 0.567499 0.328505 0.499751 0.258492 0.480346 0.291275 0.0918166 0.242795
0.130466 0.109021 0.330644 0.468127 0.658819 0.341215 0.469037 0.173812 0.171169 0.141674
0.202888 0.195292 0.132505 0.191536 0.629608 0.406697 0.237589 0.256525 0.247166 0.0899911
0.109264 0.242942 0.196247 0.161262 0.0825026 0.72451 1.55568 1.3699 0.840412 1.01028
0.730658 0.646693 0.639787 0.55239 0.697092 0.551769 0.649432 0.276594 0.431693 0.477429
0.471853 0.361362 0.629094 0.538494 1.12697 1.07002 1.08091 1.30144 0.601744 0.732556
0.7021 0.714868 0.460595 0.61947 0.275161 0.364276 0.287754 0.224844 0.713702 0.657146
0.731484 0.485009 0.568117 0.412727 0.337206 0.320109 0.593043 0.282477 0.185551 0.151214
0.45678 0.335221 0.225249 0.300678 0.347782 0.153201 0.261601 0.429506 1.09614 0.758466
0.532682 0.83552 0.823308 0.504083 0.934685 0.856316 0.824407 0.621363 0.228818 0.120501
1.41101 0.889428 0.831674 0.35193 0.188707 0.647669 0.232567 0.488705 0.670599 1.08673
0.987327 0.513049 0.49348 0.499734 0.491649 0.289796 0.865556 0.917462 0.82683 0.957931
0.179482 0.3159 0.336616 0.415107 0.203036 0.334961 0.580254 0.347506 0.271344 0.482141
0.656315 0.346923 0.386317 0.295145 0.429744 0.202751 0.410865 0.570083 0.48393 0.665735
0.587122 0.0727197 0.130172 0.325449 0.187231 0.159415 0.0819173 0.18456 0.0934575 0.259298
0.125804 0.417734 0.457075 0.353371 0.238949 0.260777 0.238977 0.393822 0.701033 1.01066
0.992016 0.855819 0.293252 0.488658 0.634139 0.295747 0.337109 0.170657 0.337588 0.344849
0.579512 0.732891 0.184453 0.409109 0.232074 0.467777 0.510634 0.842108 0.549974 0.905904
0.35685 0.600969 0.226297 0.260758 0.463902 1.20267 0.658315 0.584282 0.596067 0.884115
0.812489 0.319968 1.1188 0.571056 0.899109 1.33049 0.982384 1.23195 1.27935 1.04352
0.798663 1.2832 0.515786 0.537198 0.534742 0.500281 0.749333 1.26217 1.23324 1.04865
0.910325 0.892325 0.899498 0.879361 0.712242 1.19543 1.19423 1.04784 0.688058 0.984766
0.57007 1.06917 0.698824 1.04631 0.818944 0.997097 0.786242 1.02328 1.26601 1.25623
1.1915 0.527714 0.768783 0.558967 0.426072 0.978169 1.18973 0.585857 0.733829 1.00244
0.854098 1.30023 1.13355 0.81896 1.55129 1.04368 1.19939 0.886393 0.755758 1.04312
0.506131 1.38603 0.798582 1.19139 0.99902 0.860375 1.19862 0.864915 0.99091 0.576484
1.37376 0.897867 1.64864 0.558491 1.70994 1.21668 1.00844 0.943839 0.705675 1.1567
0.956163 1.70482 0.830098 0.885886 1.89892 1.913 1.55105 1.812 1.94545 1.25761
1.32928 1.21987 1.32608 1.60096 1.57982 1.65989 1.46455 1.15094 1.17205 1.73964
1.33251 1.06093 0.654113 0.899391 1.65086 1.64017 1.61595 0.853445 1.57288 1.12198
1.52926 1.51404 1.39416 0.946511 0.845568 0.512773 0.89036 0.900689 0.993993 0.540062
0.246068 0.505373 0.222406 0.191705 0.293912 0.220577 0.484284 0.196812 0.434651 0.566938
0.25258 0.31887 0.370242 0.357063 0.446704 0.442636 0.790242 0.501322 0.404625 0.25892
0.221593 0.611467 0.225498 0.225498 0.696003 0.357747 0.26863 0.481846 0.577669 0.587071
0.371016 0.130582 0.176026 0.115269 0.76227 0.365394 1.05689 0.85383 0.501443 1.07347
1.15603 1.0194 1.17825 0.864725 0.74893 0.345257 0.746382 0.283076 0.817103 0.622884
0.286934 0.701014 0.426094 0.672089 0.307016 1.54368 1.33059 1.03402 1.09685 1.21316
1.54622 1.36635 1.41228 1.82797 0.999998 1.53251 1.79835 1.196 0.334229 0.406028
1.17659 0.395078 0.808679 0.420546 0.784094 0.286945 0.369612 0.728475 0.388984 0.666952
0.739938 0.412352 0.48228 0.666097 1.43925 0.866868 0.667704 1.29896 0.562793 0.307132
0.301039 1.01685 0.865531 1.67963 0.605654 0.564128 0.34821 1.01508 1.12896 0.617086
0.658395 0.0479283 0.121557 0.15955 0.37411 0.291727 0.215641 0.0636105 0.551582 0.241399
0.319271 0.227515 0.0661296 0.409078 0.378771 0.289569 0.419745 0.339693 0.418417 0.326268
0.310377 0.279764 0.193536 0.236798 0.3575 0.189439 0.348684 0.144145 0.358352 0.206618
0.223715 0.24554 0.154619 0.280579 0.535621 0.226407 0.206461 0.179912 0.356421 0.164353
0.203157 0.101212 0.354594 0.100209 0.132752 0.217016 0.195493 0.441214 0.127166 0.24391
0.530409 1.01432 0.882185 0.810623 0.755418 0.745293 0.717982 1.04239 0.144674 0.472202
0.152336 0.104846 0.097153 0.180258 0.200073 0.216948 0.458066 0.265786 0.29666 0.282906
0.482741 0.421255 0.660964 0.366718 0.492035 0.284143 0.544797 0.051542 0.0895468 0.111376
0.110558 0.723745 0.573622 0.419034 0.325249 0.127485 0.220675 0.19451 0.337111 0.694775