# vtk DataFile Version 2.0
sampleSurface
ASCII
DATASET POLYDATA
POINTS 9875 float
-1324.36 -1350.27 10 -1424.05 -1350.27 10 -1424.05 -1421.34 10 -1324.36 -1421.34
10 -1224.68 -1350.27 10 -1224.68 -1421.34 10 -1125 -1350.27 10
-1125 -1421.34 10 -1025.31 -1350.27 10 -1025.31 -1421.34 10 -925.631
-1350.27 10 -925.631 -1421.34 10 -825.947 -1350.27 10 -825.947 -1421.34
10 -726.264 -1350.27 10 -726.264 -1421.34 10 -626.581 -1350.27 10
-626.581 -1421.34 10 -526.898 -1350.27 10 -526.898 -1421.34 10 -427.214
-1350.27 10 -427.214 -1421.34 10 -327.531 -1350.27 10 -327.531 -1421.34
10 -227.848 -1350.27 10 -227.848 -1421.34 10 -128.164 -1350.27 10
-128.164 -1421.34 10 -28.4812 -1350.27 10 -28.4812 -1421.34 10 71.2021
-1350.27 10 71.2021 -1421.34 10 170.885 -1350.27 10 170.885 -1421.34
10 270.569 -1350.27 10 270.569 -1421.34 10 370.252 -1350.27 10
370.252 -1421.34 10 469.935 -1350.27 10 469.935 -1421.34 10 569.619
-1350.27 10 569.619 -1421.34 10 669.302 -1350.27 10 669.302 -1421.34
10 768.985 -1350.27 10 768.985 -1421.34 10 868.669 -1350.27 10
868.669 -1421.34 10 968.352 -1350.27 10 968.352 -1421.34 10 1068.04
-1350.27 10 1068.04 -1421.34 10 1167.72 -1350.27 10 1167.72 -1421.34
10 1267.4 -1350.27 10 1267.4 -1421.34 10 1367.09 -1350.27 10
1367.09 -1421.34 10 1466.77 -1350.27 10 1466.77 -1421.34 10 1566.45
-1350.27 10 1566.45 -1421.34 10 1666.14 -1350.27 10 1666.14 -1421.34
10 1765.82 -1350.27 10 1765.82 -1421.34 10 1865.5 -1350.27 10
1865.5 -1421.34 10 1965.19 -1350.27 10 1965.19 -1421.34 10 2064.87
-1350.27 10 2064.87 -1421.34 10 2164.55 -1350.27 10 2164.55 -1421.34
10 2264.24 -1350.27 10 2264.24 -1421.34 10 2363.92 -1350.27 10
2363.92 -1421.34 10 2463.6 -1350.27 10 2463.6 -1421.34 10 2563.29
-1350.27 10 2563.29 -1421.34 10 2662.97 -1350.27 10 2662.97 -1421.34
10 2762.65 -1350.27 10 2762.65 -1421.34 10 2862.34 -1350.27 10
2862.34 -1421.34 10 2962.02 -1350.27 10 2962.02 -1421.34 10 3061.7
-1350.27 10 3061.7 -1421.34 10 3161.39 -1350.27 10 3161.39 -1421.34
10 3261.07 -1350.27 10 3261.07 -1421.34 10 3360.75 -1350.27 10
3360.75 -1421.34 10 3460.44 -1350.27 10 3460.44 -1421.34 10 3560.12
-1421.34 10 3560.12 -1350.27 10 -1324.36 -1279.2 10 -1424.05 -1279.2
10 -1224.68 -1279.2 10 -1125 -1279.2 10 -1025.31 -1279.2 10
-925.631 -1279.2 10 -825.947 -1279.2 10 -726.264 -1279.2 10 -626.581
-1279.2 10 -526.898 -1279.2 10 -427.214 -1279.2 10 -327.531 -1279.2
10 -227.848 -1279.2 10 -128.164 -1279.2 10 -28.4812 -1279.2 10
71.2021 -1279.2 10 170.885 -1279.2 10 270.569 -1279.2 10 370.252
-1279.2 10 469.935 -1279.2 10 569.619 -1279.2 10 669.302 -1279.2
10 768.985 -1279.2 10 868.669 -1279.2 10 968.352 -1279.2 10
1068.04 -1279.2 10 1167.72 -1279.2 10 1267.4 -1279.2 10 1367.09
-1279.2 10 1466.77 -1279.2 10 1566.45 -1279.2 10 1666.14 -1279.2
10 1765.82 -1279.2 10 1865.5 -1279.2 10 1965.19 -1279.2 10
2064.87 -1279.2 10 2164.55 -1279.2 10 2264.24 -1279.2 10 2363.92
-1279.2 10 2463.6 -1279.2 10 2563.29 -1279.2 10 2662.97 -1279.2
10 2762.65 -1279.2 10 2862.34 -1279.2 10 2962.02 -1279.2 10
3061.7 -1279.2 10 3161.39 -1279.2 10 3261.07 -1279.2 10 3360.75
-1279.2 10 3460.44 -1279.2 10 3560.12 -1279.2 10 -1324.36 -1208.14
10 -1424.05 -1208.14 10 -1224.68 -1208.14 10 -1125 -1208.14 10
-1025.31 -1208.14 10 -925.631 -1208.14 10 -825.947 -1208.14 10 -726.264
-1208.14 10 -626.581 -1208.14 10 -526.898 -1208.14 10 -427.214 -1208.14
10 -327.531 -1208.14 10 -227.848 -1208.14 10 -128.164 -1208.14 10
-28.4812 -1208.14 10 71.2021 -1208.14 10 170.885 -1208.14 10 270.569
-1208.14 10 370.252 -1208.14 10 469.935 -1208.14 10 569.619 -1208.14
10 669.302 -1208.14 10 768.985 -1208.14 10 868.669 -1208.14 10
968.352 -1208.14 10 1068.04 -1208.14 10 1167.72 -1208.14 10 1267.4
-1208.14 10 1367.09 -1208.14 10 1466.77 -1208.14 10 1566.45 -1208.14
10 1666.14 -1208.14 10 1765.82 -1208.14 10 1865.5 -1208.14 10
1965.19 -1208.14 10 2064.87 -1208.14 10 2164.55 -1208.14 10 2264.24
-1208.14 10 2363.92 -1208.14 10 2463.6 -1208.14 10 2563.29 -1208.14
10 2662.97 -1208.14 10 2762.65 -1208.14 10 2862.34 -1208.14 10
2962.02 -1208.14 10 3061.7 -1208.14 10 3161.39 -1208.14 10 3261.07
-1208.14 10 3360.75 -1208.14 10 3460.44 -1208.14 10 3560.12 -1208.14
10 -1324.36 -1137.07 10 -1424.05 -1137.07 10 -1224.68 -1137.07 10
-1125 -1137.07 10 -1025.31 -1137.07 10 -925.631 -1137.07 10 -825.947
-1137.07 10 -726.264 -1137.07 10 -626.581 -1137.07 10 -526.898 -1137.07
10 -427.214 -1137.07 10 -327.531 -1137.07 10 -227.848 -1137.07 10
-128.164 -1137.07 10 -28.4812 -1137.07 10 71.2021 -1137.07 10 170.885
-1137.07 10 270.569 -1137.07 10 370.252 -1137.07 10 469.935 -1137.07
10 569.619 -1137.07 10 669.302 -1137.07 10 768.985 -1137.07 10
868.669 -1137.07 10 968.352 -1137.07 10 1068.04 -1137.07 10 1167.72
-1137.07 10 1267.4 -1137.07 10 1367.09 -1137.07 10 1466.77 -1137.07
10 1566.45 -1137.07 10 1666.14 -1137.07 10 1765.82 -1137.07 10
1865.5 -1137.07 10 1965.19 -1137.07 10 2064.87 -1137.07 10 2164.55
-1137.07 10 2264.24 -1137.07 10 2363.92 -1137.07 10 2463.6 -1137.07
10 2563.29 -1137.07 10 2662.97 -1137.07 10 2762.65 -1137.07 10
2862.34 -1137.07 10 2962.02 -1137.07 10 3061.7 -1137.07 10 3161.39
-1137.07 10 3261.07 -1137.07 10 3360.75 -1137.07 10 3460.44 -1137.07
10 3560.12 -1137.07 10 -1324.36 -1066 10 -1424.05 -1066 10
-1224.68 -1066 10 -1125 -1066 10 -1025.31 -1066 10 -925.631
-1066 10 -825.947 -1066 10 -726.264 -1066 10 -626.581 -1066
10 -526.898 -1066 10 -427.214 -1066 10 -327.531 -1066 10
-227.848 -1066 10 -128.164 -1066 10 -28.4812 -1066 10 71.202
-1066 10 170.885 -1066 10 270.569 -1066 10 370.252 -1066
10 469.935 -1066 10 569.619 -1066 10 669.302 -1066 10
768.985 -1066 10 868.669 -1066 10 968.352 -1066 10 1068.04
-1066 10 1167.72 -1066 10 1267.4 -1066 10 1367.09 -1066
10 1466.77 -1066 10 1566.45 -1066 10 1666.14 -1066 10
1765.82 -1066 10 1865.5 -1066 10 1965.19 -1066 10 2064.87
-1066 10 2164.55 -1066 10 2264.24 -1066 10 2363.92 -1066
10 2463.6 -1066 10 2563.29 -1066 10 2662.97 -1066 10
2762.65 -1066 10 2862.34 -1066 10 2962.02 -1066 10 3061.7
-1066 10 3161.39 -1066 10 3261.07 -1066 10 3360.75 -1066
10 3460.44 -1066 10 3560.12 -1066 10 -1324.36 -994.936 10
-1424.05 -994.936 10 -1224.68 -994.936 10 -1125 -994.936 10 -1025.31
-994.936 10 -925.631 -994.936 10 -825.947 -994.936 10 -726.264 -994.936
10 -626.581 -994.936 10 -526.898 -994.936 10 -427.214 -994.936 10
-327.531 -994.936 10 -227.848 -994.936 10 -128.164 -994.936 10 -28.4812
-994.936 10 71.202 -994.936 10 170.885 -994.936 10 270.569 -994.936
10 370.252 -994.936 10 469.935 -994.936 10 569.619 -994.936 10
669.302 -994.936 10 768.985 -994.936 10 868.669 -994.936 10 968.352
-994.936 10 1068.04 -994.936 10 1167.72 -994.936 10 1267.4 -994.936
10 1367.08 -994.936 10 1466.77 -994.936 10 1566.45 -994.936 10
1666.14 -994.936 10 1765.82 -994.936 10 1865.5 -994.936 10 1965.19
-994.936 10 2064.87 -994.936 10 2164.55 -994.936 10 2264.24 -994.936
10 2363.92 -994.936 10 2463.6 -994.936 10 2563.29 -994.936 10
2662.97 -994.936 10 2762.65 -994.936 10 2862.34 -994.936 10 2962.02
-994.936 10 3061.7 -994.936 10 3161.39 -994.936 10 3261.07 -994.936
10 3360.75 -994.936 10 3460.44 -994.936 10 3560.12 -994.936 10
-1324.36 -923.869 10 -1424.05 -923.869 10 -1224.68 -923.869 10 -1125
-923.869 10 -1025.31 -923.869 10 -925.631 -923.869 10 -825.947 -923.869
10 -875.789 -923.869 10 -726.264 -923.869 10 -776.106 -923.869 10
-626.581 -923.869 10 -676.422 -923.869 10 -526.897 -923.869 10 -576.739
-923.869 10 -427.214 -923.869 10 -477.056 -923.869 10 -327.531 -923.869
10 -377.373 -923.869 10 -227.848 -923.869 10 -277.689 -923.869 10
-128.164 -923.869 10 -178.006 -923.869 10 -28.4812 -923.869 10 -78.3228
-923.869 10 71.202 -923.869 10 21.3604 -923.869 10 170.885 -923.869
10 121.044 -923.869 10 270.568 -923.869 10 220.727 -923.869 10
370.252 -923.869 10 320.41 -923.869 10 469.935 -923.869 10 420.093
-923.869 10 569.619 -923.869 10 519.777 -923.869 10 669.302 -923.869
10 619.46 -923.869 10 768.985 -923.869 10 719.144 -923.869 10
868.669 -923.869 10 818.827 -923.869 10 968.352 -923.869 10 1068.04
-923.869 10 1167.72 -923.869 10 1267.4 -923.869 10 1367.08 -923.869
10 1466.77 -923.869 10 1566.45 -923.869 10 1666.13 -923.869 10
1765.82 -923.869 10 1865.5 -923.869 10 1965.19 -923.869 10 2064.87
-923.869 10 2164.55 -923.869 10 2264.24 -923.869 10 2363.92 -923.869
10 2463.6 -923.869 10 2563.29 -923.869 10 2662.97 -923.869 10
2762.65 -923.869 10 2862.34 -923.869 10 2962.02 -923.869 10 3061.7
-923.869 10 3161.39 -923.869 10 3261.07 -923.869 10 3360.75 -923.869
10 3460.44 -923.869 10 3560.12 -923.869 10 -1324.36 -852.802 10
-1424.05 -852.802 10 -1224.68 -852.802 10 -1125 -852.802 10 -1025.31
-852.802 10 -925.631 -888.336 10 -925.631 -852.802 10 -875.789 -888.336
10 -776.106 -888.336 10 -825.947 -888.336 10 -676.422 -888.336 10
-726.264 -888.336 10 -576.739 -888.336 10 -626.581 -888.336 10 -477.056
-888.336 10 -526.897 -888.336 10 -377.373 -888.336 10 -427.214 -888.336
10 -277.689 -888.336 10 -327.531 -888.336 10 -178.006 -888.336 10
-227.848 -888.336 10 -78.3227 -888.336 10 -128.164 -888.336 10 21.3606
-888.335 10 -28.481 -888.336 10 121.044 -888.335 10 71.2022 -888.335
10 220.727 -888.335 10 170.885 -888.335 10 320.41 -888.336 10
270.569 -888.336 10 420.094 -888.336 10 370.252 -888.336 10 519.777
-888.336 10 469.935 -888.336 10 619.46 -888.336 10 569.619 -888.336
10 719.144 -888.336 10 669.302 -888.336 10 818.827 -888.336 10
768.985 -888.336 10 968.352 -852.802 10 918.511 -852.802 10 868.669
-852.802 10 868.669 -888.336 10 1068.04 -852.802 10 1167.72 -852.802
10 1267.4 -852.802 10 1367.08 -852.802 10 1466.77 -852.802 10
1566.45 -852.802 10 1666.13 -852.802 10 1765.82 -852.802 10 1865.5
-852.802 10 1965.18 -852.802 10 2064.87 -852.802 10 2164.55 -852.802
10 2264.24 -852.802 10 2363.92 -852.802 10 2463.6 -852.802 10
2563.29 -852.802 10 2662.97 -852.802 10 2762.65 -852.802 10 2862.34
-852.802 10 2962.02 -852.802 10 3061.7 -852.802 10 3161.39 -852.802
10 3261.07 -852.802 10 3360.75 -852.802 10 3460.44 -852.802 10
3560.12 -852.802 10 -1324.36 -781.735 10 -1424.05 -781.735 10 -1224.68
[...]
CELL_DATA 9319
FIELD attributes 2
k 1 9319 float
2.2119 1.74232 1.62759 1.57548 1.53582 1.50066 1.47047 1.44444 1.42132 1.40052 1.38178
1.36489 1.34957 1.33559 1.32271 1.31073 1.29949 1.28884 1.27872 1.26909 1.25995
1.25135 1.24331 1.2359 1.22912 1.22296 1.21736 1.21221 1.20741 1.20286 1.19847
1.19421 1.19007 1.18601 1.18205 1.17817 1.17437 1.17067 1.16704 1.1635 1.16005
1.15668 1.15339 1.15019 1.14707 1.14402 1.14109 1.13805 1.13575 1.13123 2.21189
1.74232 1.62759 1.57549 1.53584 1.5007 1.47051 1.44445 1.42128 1.40044 1.38169
1.36479 1.3495 1.33555 1.3227 1.31075 1.29952 1.28887 1.27873 1.26907 1.2599
1.25126 1.24319 1.23575 1.22897 1.22284 1.21727 1.21217 1.2074 1.20287 1.1985
1.19424 1.19009 1.18603 1.18206 1.17818 1.17438 1.17066 1.16703 1.16349 1.16003
1.15666 1.15336 1.15016 1.14703 1.14398 1.14105 1.13801 1.13571 1.13119 2.21189
1.74232 1.6276 1.57551 1.5359 1.5008 1.47062 1.4445 1.42121 1.40027 1.38147
1.36459 1.34934 1.33545 1.32268 1.3108 1.2996 1.28895 1.27878 1.26906 1.25981
1.25108 1.24294 1.23545 1.22865 1.22255 1.21705 1.21203 1.20733 1.20285 1.1985
1.19426 1.19012 1.18607 1.18209 1.17821 1.17441 1.17069 1.16706 1.16351 1.16006
1.15668 1.15339 1.15018 1.14706 1.144 1.14107 1.13802 1.13572 1.1312 2.21189
1.74232 1.62761 1.57555 1.53599 1.50098 1.47082 1.44459 1.42112 1.40005 1.3812
1.36434 1.34915 1.33537 1.3227 1.3109 1.29974 1.28909 1.27886 1.26905 1.25969
1.25084 1.24259 1.23502 1.22823 1.2222 1.21682 1.21193 1.20735 1.20292 1.19859
1.19435 1.19019 1.18612 1.18212 1.17821 1.17439 1.17065 1.16701 1.16345 1.15998
1.15659 1.15329 1.15008 1.14695 1.14389 1.14096 1.13791 1.1356 1.13108 2.21189
1.74232 1.62762 1.57559 1.53613 1.5013 1.47123 1.44481 1.421 1.39971 1.3808
1.36399 1.34895 1.33534 1.32286 1.3112 1.30011 1.28943 1.2791 1.26912 1.25957
1.25051 1.24208 1.23439 1.22755 1.22158 1.21635 1.21166 1.20725 1.20294 1.19867
1.19445 1.19031 1.18624 1.18224 1.17833 1.1745 1.17076 1.16711 1.16354 1.16007
1.15668 1.15337 1.15016 1.14702 1.14396 1.14102 1.13796 1.13565 1.13111 2.21189
1.74232 1.62764 1.57565 1.53625 1.50168 1.4719 1.44535 1.4212 1.39969 1.38074
1.36401 1.34912 1.33573 1.32347 1.31198 1.30096 1.29024 1.27979 1.26962 1.25984
1.25051 1.2418 1.23393 1.22718 1.22139 1.21635 1.21186 1.20759 1.20334 1.19908
1.19485 1.19068 1.18659 1.18256 1.17863 1.17478 1.17103 1.16736 1.16379 1.16031
1.15691 1.1536 1.15038 1.14724 1.14418 1.14124 1.13819 1.13587 1.13134 2.21189
1.74233 1.62766 1.57571 1.53651 1.5023 1.4733 1.44625 1.42138 1.39951 1.38063
1.36424 1.34987 1.3371 1.32545 1.31439 1.30351 1.29267 1.2819 1.27131 1.26105
1.25125 1.24211 1.2338 1.2272 1.2219 1.2175 1.21359 1.20963 1.20542 1.20108
1.19674 1.19244 1.1882 1.18405 1.17999 1.17602 1.17216 1.16839 1.16472 1.16114
1.15767 1.15428 1.15099 1.14779 1.14466 1.14167 1.13856 1.1362 1.13159 2.2119
1.74235 1.62777 1.57463 1.55632 1.53604 1.48702 1.44962 1.41963 1.39556 1.37589
1.35938 1.34529 1.3329 1.32138 1.30986 1.29799 1.28567 1.27314 1.26078 1.24896
1.23784 1.22771 1.16903 1.23911 1.25232 1.25163 1.24719 1.23993 1.23255 1.22544
1.21878 1.21255 1.20669 1.20116 1.1959 1.19089 1.1861 1.18152 1.17713 1.17291
1.16885 1.16494 1.16117 1.15753 1.154 1.15064 1.14716 1.14454 1.13945 2.2119
1.74236 1.62777 1.57478 1.5562 1.5483 1.1327 1.27628 1.30868 1.30526 1.29427
1.28078 1.26833 1.25717 1.24719 1.23821 1.23003 1.2225 1.21552 1.20902 1.20292
1.19718 1.19176 1.18662 1.18173 1.17707 1.17262 1.16837 1.16427 1.1604 1.15642
1.15344 1.14769 2.21189 1.74236 1.62779 1.57482 1.55648 1.5483 1.14168 1.28179
1.31423 1.31037 1.29866 1.28456 1.27161 1.26003 1.24969 1.24039 1.23194 1.22417
1.21698 1.21029 1.20403 1.19814 1.19259 1.18733 1.18233 1.17758 1.17305 1.16871
1.16455 1.16062 1.15658 1.15355 1.14773 2.2119 1.74237 1.6278 1.57485 1.55663
1.54864 1.13877 1.27971 1.31215 1.30848 1.29711 1.28332 1.27056 1.2591 1.24881
1.23954 1.23107 1.22326 1.21603 1.2093 1.20299 1.19706 1.19147 1.18617 1.18115
1.17637 1.17181 1.16746 1.16328 1.15933 1.15528 1.15224 1.1464 2.2119 1.74237
1.6278 1.57486 1.55662 1.54872 1.13625 1.27802 1.31069 1.30727 1.29624 1.28264
1.27004 1.25868 1.24849 1.23928 1.23087 1.22311 1.21591 1.2092 1.20291 1.197
1.19142 1.18613 1.18112 1.17634 1.17179 1.16743 1.16325 1.1593 1.15524 1.15219
1.14633 2.2119 1.74237 1.62779 1.57484 1.55647 1.54859 1.13203 1.27475 1.30741
1.30412 1.29336 1.28 1.26755 1.25628 1.24612 1.23692 1.2285 1.22072 1.2135
1.20677 1.20045 1.19452 1.18892 1.18362 1.17858 1.1738 1.16923 1.16487 1.16069
1.15674 1.15268 1.14964 1.14379 2.2119 1.74237 1.62777 1.57479 1.55623 1.5483
1.12812 1.27128 1.30397 1.30081 1.29032 1.27729 1.26513 1.25406 1.24402 1.23489
1.22648 1.2187 1.21145 1.20468 1.19833 1.19234 1.18669 1.18133 1.17625 1.17141
1.1668 1.16239 1.15816 1.15417 1.15006 1.14699 1.14108 2.2119 1.74237 1.62775
1.57473 1.55593 1.54792 1.11196 1.25492 1.28733 1.28394 1.27319 1.26005 1.24781
1.23667 1.22658 1.2174 1.20897 1.20117 1.19393 1.18718 1.18086 1.17493 1.16934
1.16406 1.15907 1.15432 1.14981 1.14551 1.14139 1.13753 1.13354 1.13058 1.12489
2.2119 1.74236 1.62773 1.57466 1.55559 1.5475 1.07232 1.19382 1.22743 1.22635
1.21957 1.20985 1.20063 1.19216 1.18447 1.17748 1.17103 1.16507 1.15952 1.15434
1.14949 1.14493 1.14064 1.13659 1.13276 1.12913 1.12568 1.12239 1.11924 1.11628
1.11324 1.11096 1.10657 2.2119 1.74236 1.6277 1.57459 1.55526 1.54708 1.05434
1.29298 1.3306 1.32999 1.32315 1.3126 1.30221 1.29231 1.28312 1.27446 1.2663
1.25856 1.25122 1.24425 1.23759 1.23125 1.22517 1.21935 1.21377 1.2084 1.20324
1.19826 1.19344 1.18887 1.18413 1.18063 1.17366 2.21191 1.74237 1.62767 1.57452
1.55496 1.54671 1.22702 1.15382 1.18799 1.18546 1.17639 1.16489 1.15387 1.14371
1.1346 1.12633 1.11883 1.11198 1.1057 1.09993 1.09459 1.08965 1.08504 1.08074
1.07671 1.07293 1.06936 1.06599 1.06278 1.05981 1.05675 1.05455 1.05033 2.21191
1.74237 1.62765 1.57446 1.55472 1.54641 0.680218 0.850074 0.905699 0.92635 0.937591
0.943242 0.945949 0.947274 0.947993 0.948415 0.948691 0.948924 0.949196 0.949512 0.949879
0.950305 0.950786 0.951312 0.95188 0.952473 0.953097 0.953722 0.954373 0.954986 0.955687
0.956153 0.957081 2.21191 1.74237 1.62764 1.57442 1.55455 1.5462 0.822911 1.26502
1.3252 1.33438 1.33202 1.32607 1.3192 1.31281 1.30707 1.30189 1.29712 1.29267
1.28847 1.28447 1.28061 1.27688 1.27324 1.26967 1.26616 1.2627 1.2593 1.25591
1.25258 1.24927 1.24587 1.24316 1.2377 2.21191 1.74237 1.62763 1.5744 1.55449
1.54611 1.50448 1.50426 1.54894 1.55 1.54298 1.53054 1.51811 1.50622 1.49502
1.48442 1.47431 1.46458 1.45524 1.44621 1.43747 1.429 1.42079 1.41282 1.40507
1.39754 1.39023 1.38312 1.37618 1.36951 1.36266 1.3574 1.34709 2.21191 1.74236
1.62763 1.57441 1.55454 1.54617 0.819108 0.954202 1.00682 1.0227 1.02888 1.03164
1.03277 1.03321 1.03337 1.03334 1.0332 1.03295 1.03265 1.03232 1.03198 1.03163
1.03129 1.03095 1.03063 1.0303 1.03001 1.0297 1.02943 1.02915 1.02889 1.02869
1.02823 2.2119 1.74236 1.62764 1.57444 1.5547 1.54636 0.756822 1.04644 1.08536
1.08607 1.08147 1.07389 1.0666 1.05995 1.05408 1.04886 1.04422 1.04006 1.03633
1.03298 1.02994 1.02719 1.02467 1.02237 1.02025 1.01829 1.01648 1.01479 1.01321
1.01175 1.01029 1.00923 1.00724 2.2119 1.74236 1.62766 1.5745 1.55495 1.54668
1.03655 1.24246 1.29268 1.30506 1.30639 1.30448 1.30035 1.2956 1.29066 1.28561
1.28049 1.27536 1.27022 1.26511 1.26005 1.25505 1.25012 1.24527 1.24051 1.23585
1.23127 1.22679 1.2224 1.21816 1.21375 1.21041 1.20373 2.2119 1.74236 1.62768
1.57457 1.55527 1.54707 1.32537 1.3882 1.42512 1.42261 1.41197 1.39766 1.384
1.37133 1.35979 1.34916 1.33929 1.33008 1.32143 1.3133 1.30561 1.29833 1.2914
1.2848 1.2785 1.27248 1.2667 1.26116 1.25582 1.25075 1.24556 1.24164 1.234
2.2119 1.74236 1.62771 1.57464 1.55563 1.54751 1.08217 1.2366 1.27228 1.27186
1.26553 1.25564 1.24623 1.23767 1.22985 1.22269 1.21607 1.20988 1.20409 1.19865
1.19351 1.18865 1.18404 1.17966 1.17549 1.1715 1.16769 1.16404 1.16053 1.1572
1.1538 1.15123 1.14627 2.2119 1.74235 1.62775 1.57472 1.55598 1.54795 1.10902
1.25344 1.28565 1.28203 1.27094 1.25755 1.24515 1.23393 1.22386 1.21477 1.20648
1.19887 1.19183 1.1853 1.1792 1.17349 1.16813 1.16307 1.15829 1.15376 1.14945
1.14536 1.14144 1.13776 1.134 1.13118 1.12583 2.2119 1.74236 1.62777 1.57478
1.55628 1.54833 1.13049 1.26946 1.30258 1.29967 1.28943 1.27635 1.26405 1.25284
1.24269 1.23347 1.225 1.21716 1.20988 1.20308 1.1967 1.1907 1.18503 1.17967
1.17458 1.16974 1.16513 1.16072 1.1565 1.15252 1.14843 1.14538 1.1395 2.21189
1.74236 1.62778 1.57482 1.55649 1.54858 1.13568 1.27336 1.3061 1.30281 1.29198
1.27848 1.26593 1.25459 1.24441 1.23522 1.22684 1.21914 1.212 1.20537 1.19916
1.19333 1.18783 1.18263 1.1777 1.17301 1.16854 1.16427 1.16017 1.15631 1.15234
1.14936 1.14366 2.2119 1.74236 1.62779 1.57483 1.55657 1.54862 1.13912 1.27683
1.30943 1.30591 1.29476 1.28115 1.26855 1.25721 1.24703 1.23784 1.22945 1.22171
1.21455 1.20787 1.20162 1.19573 1.19017 1.18491 1.17992 1.17517 1.17064 1.16631
1.16215 1.15823 1.1542 1.15119 1.14539 2.2119 1.74237 1.62779 1.57481 1.55648
1.54836 1.14153 1.27935 1.31176 1.30801 1.29648 1.28254 1.26971 1.25821 1.24794
1.23871 1.2303 1.22258 1.21545 1.20881 1.2026 1.19677 1.19128 1.18608 1.18115
1.17645 1.17198 1.16771 1.16361 1.15973 1.15577 1.15279 1.14708 2.2119 1.74236
1.62777 1.57479 1.55624 1.54795 1.14004 1.27373 1.30615 1.30285 1.29207 1.27875
1.26646 1.25544 1.24559 1.23672 1.22863 1.2212 1.21432 1.2079 1.20189 1.19623
1.19088 1.18581 1.18098 1.17639 1.172 1.16779 1.16375 1.15993 1.156 1.15306
1.14738 2.2119 1.74235 1.62778 1.57465 1.55642 1.5426 1.42462 1.35702 1.32749
1.30797 1.29311 1.2816 1.27293 1.26647 1.26054 1.25373 1.24514 1.23488 1.22351
1.21175 1.20019 1.18937 1.17903 1.16648 1.23638 1.24964 1.24908 1.24484 1.23775
1.23052 1.22355 1.21701 1.21088 1.20511 1.19966 1.19447 1.18954 1.18482 1.18031
1.17599 1.17183 1.16783 1.16398 1.16027 1.15669 1.15322 1.14991 1.1465 1.14393
1.13893 2.21189 1.74233 1.62767 1.57574 1.53661 1.50242 1.47352 1.44661 1.42196
1.40047 1.38207 1.36624 1.35251 1.34029 1.32883 1.31746 1.30589 1.29416 1.28247
1.27105 1.26013 1.24985 1.24041 1.23192 1.22525 1.21994 1.21558 1.21173 1.20783
1.2037 1.19943 1.19516 1.19093 1.18677 1.18268 1.17869 1.17479 1.17099 1.16729
1.16368 1.16017 1.15676 1.15343 1.1502 1.14706 1.14399 1.14105 1.13799 1.13568
1.13115 2.21189 1.74233 1.62766 1.57568 1.53635 1.50187 1.47221 1.44581 1.42188
1.40067 1.38209 1.36578 1.35132 1.33829 1.32618 1.31455 1.30311 1.29182 1.28071
1.26993 1.25961 1.24987 1.24086 1.23279 1.22592 1.22007 1.21501 1.21052 1.20628
1.20207 1.19785 1.19367 1.18955 1.1855 1.18153 1.17765 1.17385 1.17014 1.16653
1.16301 1.15957 1.15623 1.15297 1.1498 1.14671 1.1437 1.1408 1.1378 1.13552
1.13106 2.21189 1.74232 1.62764 1.57564 1.53624 1.5015 1.47156 1.4453 1.42172
1.40069 1.3821 1.36564 1.35093 1.33758 1.3252 1.31342 1.302 1.29084 1.27996
1.26944 1.25941 1.24997 1.24123 1.23333 1.22634 1.22028 1.21501 1.21031 1.20592
1.20163 1.1974 1.19323 1.18913 1.1851 1.18116 1.17729 1.17352 1.16983 1.16624
1.16273 1.1593 1.15597 1.15272 1.14955 1.14647 1.14346 1.14057 1.13757 1.13529
1.13083 2.21189 1.74232 1.62762 1.5756 1.53612 1.50119 1.47117 1.4451 1.42184
1.40101 1.38245 1.36587 1.35095 1.33736 1.32476 1.31285 1.30143 1.29039 1.2797
1.26942 1.25963 1.25041 1.24185 1.23406 1.2271 1.22096 1.21552 1.2106 1.20601
1.2016 1.1973 1.1931 1.18898 1.18495 1.18101 1.17715 1.17337 1.16969 1.16609
1.16259 1.15917 1.15583 1.15258 1.14942 1.14634 1.14333 1.14044 1.13744 1.13518
1.13073 2.21189 1.74232 1.62761 1.57556 1.53603 1.50103 1.47098 1.44502 1.42193
1.40122 1.38268 1.36604 1.35101 1.33728 1.32455 1.31256 1.30113 1.29014 1.27956
1.26941 1.25976 1.25068 1.24225 1.23453 1.22757 1.22135 1.21578 1.21072 1.20602
1.20155 1.19723 1.19302 1.18892 1.1849 1.18098 1.17714 1.17339 1.16973 1.16615
1.16266 1.15925 1.15593 1.15269 1.14953 1.14645 1.14345 1.14057 1.13758 1.13531
1.13086 2.21189 1.74232 1.62761 1.57554 1.53597 1.50093 1.47088 1.44498 1.422
1.40138 1.38286 1.36619 1.35109 1.33726 1.32444 1.3124 1.30095 1.28999 1.27948
1.26943 1.25988 1.2509 1.24254 1.23488 1.22792 1.22166 1.21602 1.21087 1.20609
1.20156 1.19721 1.19298 1.18887 1.18485 1.18093 1.17709 1.17334 1.16967 1.1661
1.1626 1.1592 1.15588 1.15264 1.14948 1.14641 1.14341 1.14053 1.13753 1.13527
1.13082 2.2119 1.74232 1.62761 1.57554 1.53595 1.50089 1.47083 1.44497 1.42203
1.40145 1.38294 1.36625 1.35112 1.33725 1.32439 1.31232 1.30087 1.28993 1.27945
1.26944 1.25994 1.251 1.24268 1.23503 1.22808 1.2218 1.21612 1.21093 1.20611
1.20155 1.19718 1.19296 1.18884 1.18483 1.18091 1.17708 1.17334 1.16968 1.16611
1.16262 1.15922 1.1559 1.15267 1.14952 1.14645 1.14345 1.14057 1.13758 1.13531
1.13087 1.10822 1.55477 0.850259 1.22185 1.41159 0.904307 1.13111 1.28364 1.23826
1.11387 0.724106 0.591451 0.879316 0.756047 0.752889 0.756583 1.17405 1.17626 0.669552
1.16657 1.38181 0.758659 0.194778 1.02975 1.21501 0.975969 1.08766 0.915722 1.12518
1.5097 1.20798 1.6171 1.48941 1.19774 1.2786 1.35564 1.24071 1.29803 0.825869
0.819972 0.86491 1.54038 1.16118 1.6386 0.441892 1.0007 0.977898 0.90226 1.29906
1.20226 1.21584 1.21939 1.19869 0.695946 0.337662 0.4086 1.20527 1.06633 1.06633
0.702366 0.454525 1.31948 1.01359 1.15148 0.770854 0.871527 0.994656 0.949639 1.03568
0.997317 1.00343 1.2924 1.21049 1.28688 1.2146 0.674125 0.521922 0.706944 0.501659
1.07775 0.991704 1.02217 0.841428 0.873059 1.61811 1.61485 1.21528 1.18668 0.970368
0.555794 0.668086 0.20757 0.684761 0.630188 0.810384 0.51737 1.10463 0.739937 0.498098
0.590155 0.671997 0.985629 0.709746 0.7927 0.838645 0.952476 0.695895 0.829768 0.678612
0.434855 1.10895 1.08526 1.10555 1.23736 0.895157 1.22648 0.321598 0.898942 0.282067
0.204087 0.416426 0.306807 0.623214 0.611226 0.414772 1.26547 0.834346 1.13482 0.518177
0.348089 0.561861 0.201719 1.26681 1.30347 0.400481 0.18626 1.37643 1.31505 1.34243
1.39249 1.09256 1.52682 0.347293 1.39382 1.164 0.925744 1.05767 0.989392 0.928419
0.450847 1.37538 0.527036 1.44409 1.31617 1.15541 1.51524 1.04139 1.32237 1.5484
1.26437 1.23519 1.95364 1.64079 1.28834 1.86944 1.26904 1.35567 1.00806 1.18603
1.24298 0.856651 0.935118 0.982997 0.980713 0.900063 0.987047 0.844837 0.806253 1.00232
0.909245 1.04373 1.51836 0.770197 1.25868 1.11392 0.654344 1.10439 0.605778 0.76788
0.370822 0.946171 1.00245 0.416516 0.392056 0.87666 0.949852 0.741314 0.305188 0.667678
0.934358 1.28061 1.16012 0.514643 1.27364 1.25569 0.924875 0.246231 0.140214 0.192162
0.941568 1.23683 1.29371 1.05519 0.8943 0.933267 0.843105 1.00359 0.864411 0.395065
0.517212 0.85585 0.676609 0.825195 0.787792 0.922394 0.794802 0.538401 0.787135 1.09889
1.39231 1.08772 1.00398 0.991132 0.853798 1.0468 1.87352 1.37037 1.3232 1.7758
0.655989 1.15658 1.10098 0.719667 1.24518 1.06005 1.10995 0.901955 0.584648 0.472149
0.649664 0.630346 0.82125 0.414598 0.447835 0.208813 1.374 1.15707 1.28277 1.09734
0.821579 1.00334 0.847347 0.770874 1.11068 0.866103 0.910248 0.796635 0.788467 0.91864
0.791301 0.896596 1.02796 1.04405 0.970355 1.15337 0.937689 0.944651 0.996445 1.10461
1.23946 1.05259 1.09368 1.23365 1.00216 0.985375 1.06215 1.10852 0.860675 0.846773
0.974288 1.0114 1.01245 1.02644 1.01387 1.03839 1.06404 0.994089 1.0693 0.972118
0.706992 1.52015 0.786841 1.52332 1.30895 1.16048 1.3016 1.09844 1.06741 1.07604
1.01846 0.906705 1.30051 1.26719 1.33002 0.996405 1.19633 1.26521 0.838291 0.863184
0.732729 0.747163 0.852363 0.82213 1.20073 0.867865 1.27505 1.09733 1.03314 1.08675
1.00746 1.11696 1.11517 1.10336 1.14433 1.11457 1.23496 0.990134 1.17257 1.20253
1.05885 1.15906 1.10526 1.1542 1.27474 1.18236 0.464497 1.16978 1.52575 1.18546
1.69278 1.5867 1.54263 1.62991 1.41189 1.30086 1.39428 1.40648 1.40845 1.83927
1.33632 1.57024 1.62664 1.11353 1.05838 1.13433 1.09044 1.20907 0.755679 0.736303
0.981361 1.16127 0.978201 1.03456 0.955938 0.953395 0.975502 1.02753 1.05026 0.992174
1.2661 1.27466 1.18912 1.29125 1.15491 1.36994 1.02943 1.14097 0.997973 1.22769
1.04902 1.12509 1.2517 1.51655 1.09403 1.54108 1.06463 1.40785 1.08692 1.30022
1.06038 1.13081 1.59048 1.13763 1.08899 1.07094 1.01048 1.09129 1.09267 0.901479
1.072 0.968037 1.2033 1.1119 1.12019 1.21996 1.222 1.11889 1.25273 0.869168
0.920267 1.12961 0.816891 1.21432 1.34119 1.31902 0.289605 0.92912 0.410481 0.251082
0.311542 1.42236 0.791584 1.28288 0.729905 0.69504 1.16443 0.621933 1.09449 1.09104
1.16436 1.10836 0.480869 1.11573 1.06426 1.51565 1.22142 1.10518 0.563082 0.485999
1.26387 1.42598 1.03148 1.20323 1.19037 1.15594 1.13915 1.05807 0.959418 0.479523
1.16469 1.19318 1.00266 0.0853087 0.191276 0.308454 0.525389 0.444033 0.393102 1.08339
1.0843 1.08483 1.0887 1.08081 1.12438 1.05228 0.554763 0.635634 0.940732 0.500225
0.683829 1.1649 1.04652 0.988394 1.25739 0.80887 1.43607 0.415189 0.123542 0.184283
0.165335 0.314697 0.220675 0.251093 0.29973 0.116996 0.735301 0.823413 0.891957 1.05097
1.03851 0.845388 0.844227 0.932164 1.0766 1.12774 0.88453 0.872381 1.25118 1.24841
1.29625 1.32167 1.22696 1.34289 1.24376 1.1611 0.301257 0.341635 0.332501 0.316897
0.79494 0.934033 0.754203 0.849256 0.674731 1.39461 0.847683 1.31952 0.864189 0.938229
0.947103 0.820093 1.47002 1.10835 1.24659 0.929135 1.06252 0.998358 1.06141 0.878428
0.50394 0.73788 0.805207 0.667474 0.500532 0.876469 0.938019 0.813727 0.77059 0.977633
1.22773 1.29729 1.18785 1.04749 1.42239 1.27933 0.969408 0.7463 0.953556 0.90089
0.908276 1.09485 1.18317 1.04243 1.17505 1.05597 0.965542 1.01207 1.08599 0.859739
0.770724 0.79354 0.812257 0.79202 0.733669 1.00252 0.646592 0.958993 0.618211 0.959286
0.583931 0.761471 0.861865 0.460919 0.532867 0.945058 0.546577 0.927706 1.24746 1.04424
0.9104 1.03295 1.24652 0.0827758 0.0830485 0.163609 0.393613 0.3439 0.103259 0.363073
0.597792 0.55994 0.251271 0.210257 0.573045 0.938172 1.18741 0.632877 0.383025 0.358358
1.05586 1.11561 0.318316 0.78132 0.851495 0.828579 0.78637 1.15033 1.13978 1.10474
1.1141 1.24892 1.14876 0.780133 1.0533 0.733085 1.58919 1.25214 0.348298 0.30249
0.818882 1.01087 0.708444 0.519358 0.485758 0.934103 0.881558 0.630885 1.07125 0.865526
1.05978 0.865272 0.854961 0.968459 0.980038 0.896041 0.939411 1.01351 0.729259 0.705358
0.725386 1.08171 0.907097 0.777145 1.21497 1.27443 1.12198 0.975586 1.02971 1.02793
0.978925 1.0199 1.03478 1.12606 1.13052 1.03859 1.03888 1.01301 0.887284 1.15288
1.51858 0.77989 1.37912 0.844343 0.506169 0.51386 0.44718 0.587376 0.318622 0.308861
0.452916 1.09878 0.387448 1.00304 0.702729 0.531337 0.573208 0.592282 1.00895 0.863608
0.293735 0.794641 0.575448 0.367321 0.158093 0.248336 1.2531 0.817689 1.00332 0.838099
1.01129 0.768257 1.24436 1.39584 0.115197 0.931639 2.12257 1.61273 1.5664 0.913293
1.81049 2.12432 0.87917 0.575068 0.73562 0.5342 0.958076 0.981918 0.997927 0.990987
0.538612 0.165861 0.3739 0.357659 0.168994 0.309773 0.193362 0.298572 0.217747 0.149255
0.385195 0.67047 0.698186 0.629238 0.549708 0.153138 0.247544 0.305782 0.688431 0.731986
0.664773 0.376478 0.152445 0.409184 0.460496 0.501947 0.636232 0.409224 0.535821 0.461968
0.476832 0.669129 0.50808 0.456279 0.395521 0.51492 0.38443 0.545165 0.668692 0.893137
0.734476 0.43422 0.395527 0.857841 1.03972 0.853373 0.917078 0.793285 0.840049 0.356696
0.673921 1.16008 0.121399 0.12098 0.16987 0.340139 0.264239 0.194174 0.864082 0.835692
0.786468 0.247322 0.667844 0.523047 1.00559 0.398052 0.236141 0.416069 0.349906 0.466615
0.335697 0.304486 0.253023 0.327346 0.266417 0.39649 0.682182 0.516346 0.881646 0.771517
0.715351 0.633721 0.490234 0.408443 0.455344 0.485749 0.445289 0.650982 0.798376 0.926385
1.27967 1.19553 0.832114 0.493826 0.354108 0.354108 0.295908 0.571975 0.651671 0.717828
0.692385 0.978587 0.592263 0.811368 0.83595 0.694031 0.681634 0.944392 1.37412 0.592457
0.854528 1.18164 0.735575 0.45795 0.982237 0.061064 0.299057 0.269714 0.259813 0.076818
0.464038 1.04202 1.00419 1.04905 0.918529 1.04926 1.09998 1.28006 1.26515 1.54843
0.807801 0.620302 0.612079 0.837572 0.388844 0.324021 0.197099 0.987869 0.84523 1.27145
1.18634 1.03081 0.268434 0.397274 0.260046 0.227567 1.06681 0.477408 0.180657 0.191887