# vtk DataFile Version 2.0
sampleSurface
ASCII
DATASET POLYDATA
POINTS 28247 float
-1488.34 -1520.34 1.5 -1600.36 -1520.34 1.5 -1600.36 -1600.36 1.5 -1488.34 -1600.36
1.5 -1376.31 -1520.34 1.5 -1376.31 -1600.36 1.5 -1264.29 -1520.34 1.5
-1264.29 -1600.36 1.5 -1152.26 -1520.34 1.5 -1152.26 -1600.36 1.5 -1040.23
-1520.34 1.5 -1040.23 -1600.36 1.5 -928.21 -1520.34 1.5 -928.21 -1600.36
1.5 -816.184 -1520.34 1.5 -816.184 -1600.36 1.5 -704.159 -1520.34 1.5
-704.159 -1600.36 1.5 -592.133 -1520.34 1.5 -592.133 -1600.36 1.5 -480.108
-1520.34 1.5 -480.108 -1600.36 1.5 -368.083 -1520.34 1.5 -368.083 -1600.36
1.5 -256.057 -1520.34 1.5 -256.057 -1600.36 1.5 -144.032 -1520.34 1.5
-144.032 -1600.36 1.5 -32.0067 -1520.34 1.5 -32.0068 -1600.36 1.5 80.0186
-1520.34 1.5 80.0185 -1600.36 1.5 192.044 -1520.34 1.5 192.044 -1600.36
1.5 304.069 -1520.34 1.5 304.069 -1600.36 1.5 416.094 -1520.34 1.5
416.094 -1600.36 1.5 528.12 -1520.34 1.5 528.12 -1600.36 1.5 640.145
-1520.34 1.5 640.145 -1600.36 1.5 752.17 -1520.34 1.5 752.17 -1600.36
1.5 864.196 -1520.34 1.5 864.196 -1600.36 1.5 976.221 -1520.34 1.5
976.221 -1600.36 1.5 1088.25 -1520.34 1.5 1088.25 -1600.36 1.5 1200.27
-1520.34 1.5 1200.27 -1600.36 1.5 1312.3 -1520.34 1.5 1312.3 -1600.36
1.5 1424.32 -1520.34 1.5 1424.32 -1600.36 1.5 1536.35 -1520.34 1.5
1536.35 -1600.36 1.5 1648.37 -1520.34 1.5 1648.37 -1600.36 1.5 1760.4
-1520.34 1.5 1760.4 -1600.36 1.5 1872.42 -1520.34 1.5 1872.42 -1600.36
1.5 1984.45 -1520.34 1.5 1984.45 -1600.36 1.5 2096.47 -1520.34 1.5
2096.47 -1600.36 1.5 2208.5 -1520.34 1.5 2208.5 -1600.36 1.5 2320.52
-1520.34 1.5 2320.52 -1600.36 1.5 2432.55 -1520.34 1.5 2432.55 -1600.36
1.5 2544.58 -1520.34 1.5 2544.58 -1600.36 1.5 2656.6 -1520.34 1.5
2656.6 -1600.36 1.5 2768.63 -1520.34 1.5 2768.63 -1600.36 1.5 2880.65
-1520.34 1.5 2880.65 -1600.36 1.5 2992.68 -1520.34 1.5 2992.68 -1600.36
1.5 3104.7 -1520.34 1.5 3104.7 -1600.36 1.5 3216.73 -1520.34 1.5
3216.73 -1600.36 1.5 3328.75 -1520.34 1.5 3328.75 -1600.36 1.5 3440.78
-1520.34 1.5 3440.78 -1600.36 1.5 3552.8 -1520.34 1.5 3552.8 -1600.36
1.5 3664.83 -1520.34 1.5 3664.83 -1600.36 1.5 3776.85 -1520.34 1.5
3776.85 -1600.36 1.5 3888.88 -1520.34 1.5 3888.88 -1600.36 1.5 4000.9
-1600.36 1.5 4000.9 -1520.34 1.5 -1488.34 -1440.33 1.5 -1600.36 -1440.33
1.5 -1376.31 -1440.33 1.5 -1264.29 -1440.33 1.5 -1152.26 -1440.33 1.5
-1040.23 -1440.33 1.5 -928.21 -1440.33 1.5 -816.184 -1440.33 1.5 -704.159
-1440.33 1.5 -592.133 -1440.33 1.5 -480.108 -1440.33 1.5 -368.083 -1440.33
1.5 -256.057 -1440.33 1.5 -144.032 -1440.33 1.5 -32.0067 -1440.33 1.5
80.0186 -1440.33 1.5 192.044 -1440.33 1.5 304.069 -1440.33 1.5 416.094
-1440.33 1.5 528.12 -1440.33 1.5 640.145 -1440.33 1.5 752.17 -1440.33
1.5 864.196 -1440.33 1.5 976.221 -1440.33 1.5 1088.25 -1440.33 1.5
1200.27 -1440.33 1.5 1312.3 -1440.33 1.5 1424.32 -1440.33 1.5 1536.35
-1440.33 1.5 1648.37 -1440.33 1.5 1760.4 -1440.33 1.5 1872.42 -1440.33
1.5 1984.45 -1440.33 1.5 2096.47 -1440.33 1.5 2208.5 -1440.33 1.5
2320.52 -1440.33 1.5 2432.55 -1440.33 1.5 2544.58 -1440.33 1.5 2656.6
-1440.33 1.5 2768.63 -1440.33 1.5 2880.65 -1440.33 1.5 2992.68 -1440.33
1.5 3104.7 -1440.33 1.5 3216.73 -1440.33 1.5 3328.75 -1440.33 1.5
3440.78 -1440.33 1.5 3552.8 -1440.33 1.5 3664.83 -1440.33 1.5 3776.85
-1440.33 1.5 3888.88 -1440.33 1.5 4000.9 -1440.33 1.5 -1488.34 -1360.31
1.5 -1600.36 -1360.31 1.5 -1376.31 -1360.31 1.5 -1264.29 -1360.31 1.5
-1152.26 -1360.31 1.5 -1040.23 -1360.31 1.5 -928.21 -1360.31 1.5 -816.184
-1360.31 1.5 -704.159 -1360.31 1.5 -592.133 -1360.31 1.5 -480.108 -1360.31
1.5 -368.083 -1360.31 1.5 -256.057 -1360.31 1.5 -144.032 -1360.31 1.5
-32.0067 -1360.31 1.5 80.0186 -1360.31 1.5 192.044 -1360.31 1.5 304.069
-1360.31 1.5 416.094 -1360.31 1.5 528.12 -1360.31 1.5 640.145 -1360.31
1.5 752.17 -1360.31 1.5 864.196 -1360.31 1.5 976.221 -1360.31 1.5
1088.25 -1360.31 1.5 1200.27 -1360.31 1.5 1312.3 -1360.31 1.5 1424.32
-1360.31 1.5 1536.35 -1360.31 1.5 1648.37 -1360.31 1.5 1760.4 -1360.31
1.5 1872.42 -1360.31 1.5 1984.45 -1360.31 1.5 2096.47 -1360.31 1.5
2208.5 -1360.31 1.5 2320.52 -1360.31 1.5 2432.55 -1360.31 1.5 2544.58
-1360.31 1.5 2656.6 -1360.31 1.5 2768.63 -1360.31 1.5 2880.65 -1360.31
1.5 2992.68 -1360.31 1.5 3104.7 -1360.31 1.5 3216.73 -1360.31 1.5
3328.75 -1360.31 1.5 3440.78 -1360.31 1.5 3552.8 -1360.31 1.5 3664.83
-1360.31 1.5 3776.85 -1360.31 1.5 3888.88 -1360.31 1.5 4000.9 -1360.31
1.5 -1488.34 -1280.29 1.5 -1600.36 -1280.29 1.5 -1376.31 -1280.29 1.5
-1264.29 -1280.29 1.5 -1152.26 -1280.29 1.5 -1040.23 -1280.29 1.5 -928.209
-1280.29 1.5 -816.184 -1280.29 1.5 -704.159 -1280.29 1.5 -592.133 -1280.29
1.5 -480.108 -1280.29 1.5 -368.083 -1280.29 1.5 -256.057 -1280.29 1.5
-144.032 -1280.29 1.5 -32.0066 -1280.29 1.5 80.0187 -1280.29 1.5 192.044
-1280.29 1.5 304.069 -1280.29 1.5 416.094 -1280.29 1.5 528.12 -1280.29
1.5 640.145 -1280.29 1.5 752.17 -1280.29 1.5 864.195 -1280.29 1.5
976.221 -1280.29 1.5 1088.25 -1280.29 1.5 1200.27 -1280.29 1.5 1312.3
-1280.29 1.5 1424.32 -1280.29 1.5 1536.35 -1280.29 1.5 1648.37 -1280.29
1.5 1760.4 -1280.29 1.5 1872.42 -1280.29 1.5 1984.45 -1280.29 1.5
2096.47 -1280.29 1.5 2208.5 -1280.29 1.5 2320.52 -1280.29 1.5 2432.55
-1280.29 1.5 2544.58 -1280.29 1.5 2656.6 -1280.29 1.5 2768.63 -1280.29
1.5 2880.65 -1280.29 1.5 2992.68 -1280.29 1.5 3104.7 -1280.29 1.5
3216.73 -1280.29 1.5 3328.75 -1280.29 1.5 3440.78 -1280.29 1.5 3552.8
-1280.29 1.5 3664.83 -1280.29 1.5 3776.85 -1280.29 1.5 3888.88 -1280.29
1.5 4000.9 -1280.29 1.5 -1488.34 -1200.27 1.5 -1600.36 -1200.27 1.5
-1376.31 -1200.27 1.5 -1264.29 -1200.27 1.5 -1152.26 -1200.27 1.5 -1040.23
-1200.27 1.5 -928.21 -1200.27 1.5 -816.184 -1200.27 1.5 -704.159 -1200.27
1.5 -592.133 -1200.27 1.5 -480.108 -1200.27 1.5 -368.083 -1200.27 1.5
-256.057 -1200.27 1.5 -144.032 -1200.27 1.5 -32.0065 -1200.27 1.5 80.0187
-1200.27 1.5 192.044 -1200.27 1.5 304.069 -1200.27 1.5 416.094 -1200.27
1.5 528.12 -1200.27 1.5 640.145 -1200.27 1.5 752.17 -1200.27 1.5
864.195 -1200.27 1.5 976.221 -1200.27 1.5 1088.25 -1200.27 1.5 1200.27
-1200.27 1.5 1312.3 -1200.27 1.5 1424.32 -1200.27 1.5 1536.35 -1200.27
1.5 1648.37 -1200.27 1.5 1760.4 -1200.27 1.5 1872.42 -1200.27 1.5
1984.45 -1200.27 1.5 2096.47 -1200.27 1.5 2208.5 -1200.27 1.5 2320.52
-1200.27 1.5 2432.55 -1200.27 1.5 2544.58 -1200.27 1.5 2656.6 -1200.27
1.5 2768.63 -1200.27 1.5 2880.65 -1200.27 1.5 2992.68 -1200.27 1.5
3104.7 -1200.27 1.5 3216.73 -1200.27 1.5 3328.75 -1200.27 1.5 3440.78
-1200.27 1.5 3552.8 -1200.27 1.5 3664.83 -1200.27 1.5 3776.85 -1200.27
1.5 3888.88 -1200.27 1.5 4000.9 -1200.27 1.5 -1488.34 -1120.25 1.5
-1600.36 -1120.25 1.5 -1376.31 -1120.25 1.5 -1264.29 -1120.25 1.5 -1152.26
-1120.25 1.5 -1040.23 -1120.25 1.5 -928.21 -1120.25 1.5 -816.184 -1120.25
1.5 -704.159 -1120.25 1.5 -592.133 -1120.25 1.5 -480.108 -1120.25 1.5
-368.083 -1120.25 1.5 -256.057 -1120.25 1.5 -144.032 -1120.25 1.5 -32.0065
-1120.25 1.5 80.0187 -1120.25 1.5 192.044 -1120.25 1.5 304.069 -1120.25
1.5 416.094 -1120.25 1.5 528.12 -1120.25 1.5 640.145 -1120.25 1.5
752.17 -1120.25 1.5 864.195 -1120.25 1.5 976.221 -1120.25 1.5 1088.25
-1120.25 1.5 1200.27 -1120.25 1.5 1312.3 -1120.25 1.5 1424.32 -1120.25
1.5 1536.35 -1120.25 1.5 1648.37 -1120.25 1.5 1760.4 -1120.25 1.5
1872.42 -1120.25 1.5 1984.45 -1120.25 1.5 2096.47 -1120.25 1.5 2208.5
-1120.25 1.5 2320.52 -1120.25 1.5 2432.55 -1120.25 1.5 2544.58 -1120.25
1.5 2656.6 -1120.25 1.5 2768.63 -1120.25 1.5 2880.65 -1120.25 1.5
2992.68 -1120.25 1.5 3104.7 -1120.25 1.5 3216.73 -1120.25 1.5 3328.75
-1120.25 1.5 3440.78 -1120.25 1.5 3552.8 -1120.25 1.5 3664.83 -1120.25
1.5 3776.85 -1120.25 1.5 3888.88 -1120.25 1.5 4000.9 -1120.25 1.5
-1488.34 -1040.23 1.5 -1600.36 -1040.23 1.5 -1376.31 -1040.23 1.5 -1264.29
-1040.23 1.5 -1152.26 -1040.23 1.5 -1040.23 -1040.23 1.5 -928.21 -1040.24
1.5 -984.222 -1040.24 1.5 -816.184 -1040.24 1.5 -872.197 -1040.24 1.5
-704.159 -1040.23 1.5 -760.172 -1040.24 1.5 -592.134 -1040.23 1.5 -648.146
-1040.23 1.5 -480.108 -1040.23 1.5 -536.121 -1040.23 1.5 -368.083 -1040.23
1.5 -424.095 -1040.23 1.5 -256.057 -1040.23 1.5 -312.07 -1040.23 1.5
-144.032 -1040.23 1.5 -200.045 -1040.23 1.5 -32.0067 -1040.23 1.5 -88.0193
-1040.23 1.5 80.0185 -1040.23 1.5 24.0059 -1040.23 1.5 192.044 -1040.23
1.5 136.031 -1040.23 1.5 304.069 -1040.23 1.5 248.056 -1040.23 1.5
416.094 -1040.23 1.5 360.082 -1040.23 1.5 528.119 -1040.23 1.5 472.107
-1040.23 1.5 640.145 -1040.23 1.5 584.132 -1040.23 1.5 752.17 -1040.24
1.5 696.157 -1040.24 1.5 864.195 -1040.24 1.5 808.183 -1040.24 1.5
976.221 -1040.24 1.5 920.208 -1040.24 1.5 1088.25 -1040.24 1.5 1032.23
-1040.24 1.5 1200.27 -1040.24 1.5 1312.3 -1040.24 1.5 1424.32 -1040.24
1.5 1536.35 -1040.24 1.5 1648.37 -1040.24 1.5 1760.4 -1040.24 1.5
1872.42 -1040.24 1.5 1984.45 -1040.24 1.5 2096.47 -1040.24 1.5 2208.5
-1040.24 1.5 2320.52 -1040.24 1.5 2432.55 -1040.24 1.5 2544.58 -1040.24
1.5 2656.6 -1040.24 1.5 2768.63 -1040.24 1.5 2880.65 -1040.24 1.5
2992.68 -1040.24 1.5 3104.7 -1040.24 1.5 3216.73 -1040.24 1.5 3328.75
-1040.24 1.5 3440.78 -1040.24 1.5 3552.8 -1040.24 1.5 3664.83 -1040.24
1.5 3776.85 -1040.24 1.5 3888.88 -1040.24 1.5 4000.9 -1040.24 1.5
-1488.34 -960.216 1.5 -1600.36 -960.216 1.5 -1376.31 -960.216 1.5 -1264.29
-960.217 1.5 -1152.26 -960.217 1.5 -1040.23 -1000.23 1.5 -1040.23 -960.217
1.5 -984.223 -1000.23 1.5 -872.197 -1000.23 1.5 -900.204 -1000.23 1.5
-928.21 -1000.23 1.5 -760.172 -1000.23 1.5 -788.178 -1000.23 1.5 -816.185
-1000.23 1.5 -648.147 -1000.23 1.5 -676.153 -1000.23 1.5 -704.159 -1000.23
1.5 -536.121 -1000.23 1.5 -564.128 -1000.23 1.5 -592.134 -1000.23 1.5
-424.096 -1000.23 1.5 -452.102 -1000.23 1.5 -480.109 -1000.23 1.5 -312.071
-1000.23 1.5 -340.077 -1000.23 1.5 -368.083 -1000.23 1.5 -200.045 -1000.23
1.5 -228.052 -1000.23 1.5 -256.058 -1000.23 1.5 -88.0199 -1000.23 1.5
-116.026 -1000.23 1.5 -144.033 -1000.23 1.5 24.0054 -1000.23 1.5 -4.0009
-1000.23 1.5 -32.0072 -1000.23 1.5 136.031 -1000.23 1.5 108.024 -1000.23
1.5 80.0181 -1000.23 1.5 248.056 -1000.23 1.5 220.05 -1000.23 1.5
[...]
CELL_DATA 27435
FIELD attributes 2
k 1 27435 float
3.30868 2.3624 2.05328 1.8993 1.79214 1.71896 1.66413 1.61738 1.57694 1.54271 1.51352
1.48801 1.46526 1.44468 1.42576 1.40815 1.39167 1.37629 1.36204 1.34905 1.33741
1.32718 1.31838 1.31086 1.30435 1.29846 1.2928 1.28715 1.28139 1.27552 1.26961
1.26373 1.25791 1.2522 1.24661 1.24116 1.23586 1.23072 1.22573 1.22089 1.21621
1.21169 1.2073 1.20307 1.19895 1.195 1.1912 1.18711 1.1847 1.17873 3.30867
2.3624 2.05335 1.89944 1.79229 1.71901 1.66396 1.61701 1.57652 1.54237 1.5133
1.48789 1.46523 1.44471 1.42582 1.40819 1.39165 1.37618 1.36184 1.34876 1.33705
1.32682 1.31805 1.31064 1.30429 1.29853 1.29298 1.28736 1.28157 1.27566 1.26971
1.26379 1.25794 1.25221 1.2466 1.24113 1.23582 1.23067 1.22567 1.22083 1.21615
1.21162 1.20723 1.20299 1.19887 1.19493 1.19112 1.18703 1.18462 1.17865 3.30867
2.36245 2.05351 1.8997 1.79262 1.71918 1.66363 1.61621 1.57561 1.54163 1.51281
1.48765 1.46522 1.44486 1.42602 1.40836 1.39168 1.37601 1.36145 1.34817 1.33631
1.32601 1.31731 1.31013 1.30408 1.29861 1.29324 1.28769 1.28188 1.2759 1.2699
1.26394 1.25806 1.25229 1.24667 1.24119 1.23587 1.23071 1.22571 1.22087 1.21618
1.21164 1.20725 1.20302 1.19889 1.19494 1.19113 1.18704 1.18463 1.17865 3.30868
2.36253 2.05376 1.90013 1.7932 1.71954 1.66312 1.61495 1.57425 1.54059 1.51213
1.48731 1.46519 1.44506 1.42631 1.40858 1.39171 1.37576 1.3609 1.34731 1.33523
1.32484 1.31623 1.30946 1.30396 1.29895 1.29386 1.28835 1.28242 1.27627 1.27013
1.26406 1.25809 1.25225 1.24657 1.24105 1.2357 1.23052 1.2255 1.22065 1.21595
1.21141 1.20701 1.20277 1.19865 1.1947 1.19089 1.18679 1.18439 1.17841 3.30869
2.36266 2.05411 1.90083 1.79433 1.72035 1.6623 1.61285 1.5722 1.53917 1.51135
1.48712 1.4655 1.44568 1.42702 1.40913 1.39191 1.37548 1.36009 1.34603 1.33359
1.32302 1.31458 1.30831 1.30361 1.29928 1.29465 1.28929 1.28323 1.2769 1.27062
1.26445 1.25841 1.25251 1.24679 1.24124 1.23587 1.23066 1.22563 1.22076 1.21605
1.2115 1.2071 1.20285 1.19872 1.19476 1.19094 1.18683 1.18442 1.17843 3.3087
2.36281 2.05456 1.90176 1.79615 1.72225 1.66159 1.61027 1.56983 1.53769 1.51072
1.48728 1.46637 1.44704 1.42855 1.41049 1.3928 1.37572 1.35963 1.34489 1.3319
1.32095 1.31274 1.3076 1.30395 1.30025 1.29598 1.29054 1.28412 1.27748 1.27099
1.26467 1.25852 1.25255 1.24678 1.24119 1.2358 1.23058 1.22554 1.22067 1.21596
1.21142 1.20702 1.20278 1.19864 1.19469 1.19088 1.18677 1.18436 1.17837 3.30871
2.36294 2.05496 1.90308 1.79887 1.72531 1.65857 1.60555 1.56706 1.53727 1.51208
1.49003 1.47017 1.45143 1.43299 1.41435 1.39567 1.37748 1.36039 1.34488 1.33147
1.32038 1.31239 1.30955 1.30875 1.30668 1.30278 1.29654 1.289 1.28154 1.27451
1.26776 1.26125 1.25497 1.24894 1.24314 1.23755 1.23217 1.22699 1.222 1.21718
1.21253 1.20804 1.20372 1.19951 1.19548 1.19161 1.18742 1.18499 1.1789 3.30875
2.36291 2.05364 1.90899 1.73733 1.60745 1.65225 1.61062 1.5791 1.55408 1.53238
1.51318 1.49537 1.47772 1.45929 1.43964 1.41932 1.39921 1.38034 1.36352 1.34922
1.33789 1.335 1.30062 1.42482 1.40561 1.37125 1.34646 1.32819 1.31432 1.30296
1.29296 1.28388 1.27553 1.2678 1.26057 1.25376 1.24734 1.24124 1.23544 1.22991
1.22463 1.21956 1.21472 1.21003 1.20557 1.2013 1.19668 1.19403 1.18738 3.30877
2.36309 2.05417 1.9112 1.74205 1.58572 1.60922 1.58332 1.51585 1.44447 1.40272
1.37456 1.35385 1.33728 1.32315 1.31071 1.29961 1.28958 1.2804 1.27194 1.26407
1.25672 1.24982 1.24332 1.23717 1.23133 1.22578 1.22047 1.21543 1.21066 1.20546
1.20256 1.19515 3.30879 2.36328 2.05482 1.91271 1.74542 1.59394 1.6243 1.59163
1.52258 1.44935 1.40642 1.37745 1.35612 1.33907 1.32452 1.31172 1.30031 1.29002
1.28064 1.27199 1.26396 1.25647 1.24945 1.24284 1.2366 1.23068 1.22506 1.21969
1.21458 1.20977 1.20449 1.20158 1.19409 3.3088 2.36342 2.05521 1.91356 1.7468
1.59562 1.61838 1.58961 1.52186 1.44965 1.40699 1.37784 1.35627 1.33903 1.32432
1.31138 1.29986 1.28948 1.28001 1.27129 1.26323 1.2557 1.24864 1.242 1.23574
1.2298 1.22418 1.21879 1.21367 1.20887 1.20357 1.20067 1.19316 3.30876 2.36344
2.05533 1.91378 1.74682 1.59552 1.61276 1.58795 1.52149 1.45002 1.40745 1.37814
1.35641 1.33906 1.32428 1.31129 1.29974 1.28933 1.27985 1.27112 1.26304 1.2555
1.24844 1.24179 1.23552 1.22957 1.22394 1.21855 1.21342 1.20861 1.20329 1.20039
1.19285 3.30872 2.3634 2.05521 1.91351 1.74602 1.59443 1.60679 1.58539 1.52021
1.44977 1.4076 1.37839 1.35659 1.33912 1.32419 1.31105 1.29935 1.28883 1.27924
1.27043 1.26229 1.2547 1.24761 1.24095 1.23466 1.2287 1.22307 1.21768 1.21255
1.20774 1.20244 1.19954 1.19204 3.30871 2.36328 2.05492 1.91289 1.74468 1.59271
1.59835 1.58011 1.51623 1.44683 1.40524 1.37634 1.35471 1.33733 1.32244 1.30931
1.29759 1.28704 1.27742 1.26858 1.26039 1.25277 1.24564 1.23895 1.23263 1.22666
1.22099 1.21559 1.21044 1.20562 1.20029 1.19741 1.18986 3.30869 2.36314 2.05448
1.91202 1.74301 1.59058 1.59246 1.57635 1.51421 1.44598 1.40459 1.37556 1.35377
1.33625 1.32128 1.30811 1.29639 1.28587 1.2763 1.26752 1.2594 1.25187 1.24482
1.23821 1.23199 1.2261 1.22052 1.21519 1.21013 1.20539 1.20016 1.19731 1.18995
3.30867 2.36297 2.05398 1.91104 1.74118 1.58825 1.58602 1.6029 1.53847 1.4683
1.42568 1.39551 1.37258 1.35394 1.33789 1.32372 1.3111 1.29974 1.28942 1.27997
1.27124 1.26314 1.25558 1.2485 1.24185 1.23556 1.22962 1.22395 1.21859 1.21356
1.20805 1.20502 1.19721 3.30865 2.3628 2.05348 1.91007 1.73936 1.58588 1.57596
1.56725 1.50718 1.4419 1.40317 1.37608 1.35571 1.33929 1.32517 1.3127 1.30158
1.29157 1.28245 1.27406 1.2663 1.25908 1.25232 1.24597 1.23999 1.23432 1.22895
1.22382 1.21895 1.21436 1.20939 1.20655 1.19955 3.30864 2.36264 2.05304 1.90919
1.73775 1.58368 0.996246 1.62858 1.66624 1.61257 1.54753 1.50659 1.47684 1.45403
1.43531 1.419 1.40436 1.3911 1.37899 1.36782 1.35744 1.34775 1.33864 1.33005
1.32193 1.31421 1.30687 1.29987 1.29315 1.28674 1.2807 1.27415 1.27027 1.26102
3.30862 2.36252 2.05269 1.90851 1.73652 1.58189 1.72734 1.70103 1.61829 1.52413
1.46521 1.42398 1.39318 1.36879 1.34849 1.33113 1.31612 1.30298 1.29133 1.28089
1.27145 1.26285 1.25496 1.24767 1.24091 1.2346 1.2287 1.22312 1.21791 1.21297
1.20792 1.20477 1.19776 3.30862 2.36245 2.05248 1.90811 1.73577 1.58071 1.02853
1.14267 1.13836 1.12239 1.1136 1.11146 1.11263 1.11567 1.11916 1.12241 1.12541
1.12813 1.13051 1.13256 1.13429 1.13571 1.13685 1.13773 1.13837 1.13878 1.13902
1.13903 1.139 1.13865 1.13852 1.13795 1.13695 3.30862 2.36243 2.05244 1.90802
1.73561 1.58029 2.0818 1.92492 1.80014 1.67431 1.59293 1.53589 1.49399 1.4616
1.43519 1.41293 1.39383 1.37719 1.36248 1.34929 1.33733 1.32641 1.31635 1.30702
1.29832 1.29015 1.28247 1.2752 1.26829 1.26189 1.25502 1.2508 1.24172 3.30862
2.36248 2.05256 1.90825 1.73605 1.58069 1.12665 0.976803 0.997484 0.989789 0.974702
0.962267 0.95416 0.949251 0.946075 0.944033 0.942871 0.942373 0.942383 0.942651 0.943236
0.943992 0.94486 0.945804 0.946799 0.947816 0.948857 0.949858 0.950939 0.951778 0.953085
0.953461 0.954326 3.30863 2.36256 2.05282 1.90877 1.73703 1.58183 1.64191 1.73334
1.61653 1.5099 1.43761 1.38451 1.34443 1.31303 1.28732 1.26573 1.24739 1.23165
1.21796 1.20593 1.19524 1.18566 1.17702 1.16916 1.16197 1.15536 1.14925 1.14357
1.13825 1.13343 1.12818 1.12531 1.11823 3.30865 2.3627 2.05321 1.90954 1.73842
1.58355 1.77748 1.68326 1.62805 1.56708 1.53006 1.50329 1.48301 1.4665 1.45198
1.43873 1.42652 1.41518 1.40456 1.39454 1.38503 1.37598 1.36732 1.35903 1.35106
1.3434 1.33601 1.32889 1.32196 1.3155 1.30822 1.30398 1.29365 3.30867 2.36286
2.05366 1.91044 1.74008 1.58567 1.57177 1.54972 1.48774 1.42359 1.38543 1.35855
1.33828 1.32197 1.30802 1.29575 1.28487 1.27513 1.26631 1.25825 1.25084 1.24397
1.23758 1.2316 1.22598 1.22068 1.21567 1.2109 1.20636 1.20212 1.19746 1.19481
1.1883 3.30868 2.36302 2.05413 1.91137 1.74187 1.588 1.60154 1.57338 1.51097
1.44381 1.40335 1.3746 1.35269 1.33492 1.31963 1.30611 1.29406 1.28323 1.27338
1.26435 1.25601 1.24827 1.24104 1.23426 1.22789 1.22186 1.21617 1.21073 1.20556
1.20074 1.19537 1.19248 1.18483 3.30873 2.36318 2.05456 1.91222 1.74357 1.5903
1.61413 1.58213 1.51722 1.44757 1.40603 1.37708 1.35541 1.33804 1.32319 1.31011
1.29844 1.28793 1.27836 1.26958 1.26145 1.25388 1.2468 1.24014 1.23386 1.22791
1.22228 1.21688 1.21175 1.20692 1.2016 1.19868 1.19121 3.30878 2.3633 2.05488
1.91288 1.74497 1.59237 1.6186 1.58655 1.52068 1.45002 1.408 1.37893 1.3572
1.33973 1.32476 1.31154 1.29973 1.28907 1.27937 1.27044 1.26219 1.25451 1.24732
1.24056 1.23419 1.22816 1.22244 1.21698 1.21177 1.20691 1.20149 1.19858 1.19086
3.30879 2.36335 2.05501 1.91319 1.74587 1.59402 1.62277 1.59011 1.52299 1.45113
1.40847 1.37913 1.35734 1.33992 1.32508 1.31203 1.30043 1.28999 1.28047 1.27172
1.26362 1.25607 1.249 1.24236 1.23609 1.23015 1.22452 1.21913 1.214 1.20918
1.20386 1.20094 1.19347 3.30879 2.36333 2.05493 1.91305 1.74598 1.59492 1.62503
1.59178 1.52345 1.45083 1.40804 1.37884 1.35723 1.33994 1.32519 1.31221 1.30062
1.29018 1.28064 1.27185 1.26369 1.25608 1.24896 1.24225 1.23592 1.22992 1.22424
1.2188 1.21362 1.20877 1.20339 1.20047 1.1928 3.30878 2.3632 2.05459 1.91228
1.74473 1.59442 1.6282 1.59397 1.52441 1.45077 1.40766 1.37858 1.35717 1.34005
1.32542 1.31255 1.30108 1.29074 1.28129 1.27259 1.26452 1.25699 1.24993 1.24329
1.23702 1.23107 1.22543 1.22003 1.2149 1.21007 1.20477 1.20185 1.19438 3.30877
2.36302 2.05397 1.91083 1.74148 1.59061 1.62608 1.58566 1.51773 1.44595 1.40398
1.37569 1.35488 1.33824 1.32403 1.31152 1.30035 1.29026 1.28102 1.2725 1.26458
1.25717 1.25022 1.24366 1.23746 1.23157 1.22597 1.22061 1.21551 1.2107 1.20544
1.20251 1.19499 3.30876 2.36286 2.05347 1.90871 1.73688 1.5684 1.50089 1.50818
1.50464 1.49588 1.48609 1.47626 1.46648 1.4559 1.44354 1.42908 1.41276 1.39559
1.37858 1.36248 1.34797 1.3353 1.32187 1.46989 1.42691 1.40737 1.3727 1.34773
1.32933 1.31537 1.30392 1.29384 1.28468 1.27627 1.26846 1.26117 1.25431 1.24784
1.24169 1.23584 1.23027 1.22494 1.21984 1.21496 1.21025 1.20575 1.20146 1.1968
1.19414 1.18747 3.3087 2.36287 2.05481 1.9028 1.7985 1.72484 1.65806 1.60505
1.56667 1.5371 1.51223 1.49058 1.47113 1.45276 1.43458 1.41619 1.39775 1.37984
1.36301 1.34765 1.33424 1.32302 1.31482 1.31172 1.31072 1.30839 1.30432 1.29795
1.2903 1.28275 1.27563 1.26882 1.26223 1.25589 1.2498 1.24393 1.23829 1.23286
1.22763 1.22258 1.21772 1.21302 1.20849 1.20412 1.19987 1.1958 1.19189 1.18765
1.1852 1.17903 3.3087 2.36276 2.05444 1.90155 1.79587 1.7219 1.66121 1.6099
1.56955 1.53757 1.51085 1.48772 1.46713 1.44812 1.42988 1.41204 1.39457 1.37773
1.36185 1.34725 1.3343 1.32329 1.31496 1.30965 1.30584 1.30196 1.29755 1.29198
1.28545 1.27871 1.27214 1.26575 1.25953 1.25349 1.24765 1.24201 1.23656 1.23129
1.22619 1.22128 1.21652 1.21193 1.20749 1.20321 1.19904 1.19505 1.1912 1.18705
1.18463 1.1786 3.30869 2.36262 2.05402 1.90067 1.79411 1.72009 1.66203 1.61261
1.57205 1.53918 1.51158 1.48761 1.46628 1.44674 1.42833 1.41066 1.39365 1.37742
1.36221 1.34827 1.33588 1.32528 1.31674 1.31034 1.3055 1.30102 1.29625 1.29077
1.2846 1.27818 1.27181 1.26556 1.25944 1.25348 1.2477 1.24209 1.23665 1.2314
1.22631 1.22139 1.21664 1.21205 1.2076 1.20331 1.19913 1.19514 1.19128 1.18713
1.1847 1.17865 3.30868 2.36251 2.05368 1.90001 1.79304 1.71935 1.66293 1.6148
1.5742 1.54068 1.51242 1.48784 1.46599 1.44611 1.4276 1.41009 1.39343 1.37766
1.36295 1.34948 1.33745 1.32705 1.31837 1.31148 1.30586 1.30072 1.29549 1.28987
1.28383 1.27758 1.27135 1.2652 1.25915 1.25325 1.2475 1.24192 1.23651 1.23127
1.2262 1.2213 1.21655 1.21197 1.20753 1.20325 1.19908 1.19509 1.19125 1.18711
1.18469 1.17867 3.30867 2.36242 2.05345 1.8996 1.79249 1.71904 1.6635 1.61613
1.57562 1.54179 1.51315 1.48821 1.46602 1.4459 1.4273 1.40983 1.39336 1.37786
1.36345 1.35026 1.33845 1.32814 1.31938 1.31211 1.30595 1.30036 1.29487 1.2892
1.28329 1.27721 1.27112 1.26508 1.25912 1.25329 1.2476 1.24206 1.23668 1.23146
1.22641 1.22152 1.21678 1.2122 1.20776 1.20349 1.19932 1.19534 1.19149 1.18735
1.18493 1.1789 3.30867 2.36238 2.0533 1.89936 1.79218 1.7189 1.66387 1.61697
1.57658 1.54257 1.51367 1.48847 1.46604 1.44575 1.42708 1.40966 1.39331 1.378
1.3638 1.35082 1.33916 1.32892 1.3201 1.31262 1.30616 1.30029 1.29462 1.28889
1.283 1.27699 1.27095 1.26495 1.25902 1.25321 1.24754 1.24201 1.23664 1.23143
1.22638 1.22149 1.21676 1.21218 1.20775 1.20347 1.19931 1.19533 1.19149 1.18735
1.18493 1.17891 3.30868 2.36238 2.05324 1.89922 1.79205 1.71886 1.66405 1.61736
1.57702 1.54293 1.51392 1.4886 1.46608 1.44572 1.42702 1.40961 1.39332 1.3781
1.36399 1.35109 1.33949 1.32927 1.32042 1.31283 1.30622 1.30021 1.29445 1.28869
1.28282 1.27685 1.27085 1.26488 1.25899 1.25321 1.24755 1.24204 1.23668 1.23148
1.22644 1.22156 1.21683 1.21225 1.20782 1.20355 1.19939 1.1954 1.19157 1.18743
1.18501 1.17899 0.325233 1.11317 0.634094 0.418604 0.124672 0.547524 1.04412 0.341069
0.236539 1.1875 0.674313 0.493495 0.313976 1.15627 0.716245 0.571122 0.440275 0.363871
0.339788 0.1463 0.660006 1.01588 0.298918 0.146941 1.87856 1.54066 1.37118 0.949107
1.57853 1.57468 0.818201 1.38913 0.464627 0.531619 0.367957 0.64331 0.423366 0.533462
0.640876 0.422831 1.4613 0.814252 0.891083 0.20063 0.471287 0.479674 0.507031 0.321881
0.622351 0.535598 0.730824 0.484487 1.08816 0.783514 1.25211 1.25676 0.80686 0.363702
0.665125 0.392745 0.210522 0.444914 0.661617 0.747654 0.8325 0.511425 0.323202 0.318497
0.291884 0.109286 0.160135 0.166956 1.31432 0.867137 1.45269 0.649945 0.939018 0.878295
0.687397 1.54031 1.49259 0.70035 0.664628 0.506405 0.407515 0.615088 0.74332 0.553724
1.50908 0.340331 0.632755 0.367521 0.93495 0.440333 0.446447 0.544919 0.347595 0.637067
0.424923 1.03674 0.644838 0.546902 1.40338 1.15889 1.16991 1.17651 1.37883 0.749398
1.28478 0.241923 0.334337 0.558857 0.438842 0.624363 1.25693 0.694829 0.73858 1.23869
1.39405 1.23398 1.40318 0.715209 1.69281 1.58627 1.54472 1.56743 0.594042 0.749045
0.402196 0.44355 0.748457 0.626577 0.44921 0.956995 0.618483 0.669718 0.288933 0.908876
0.639824 1.16748 0.970624 0.495113 0.418734 0.451759 0.327047 0.26671 0.287727 0.311647
0.962668 0.960353 0.62195 0.6449 0.412881 0.647337 0.801105 1.36856 0.723803 0.701094
0.0696396 0.0851686 0.803202 0.233119 0.30889 0.551849 0.583461 0.577132 0.455149 1.05235
0.735611 0.437646 0.353184 0.191355 0.624809 0.528011 0.151511 0.15701 0.461002 0.229833
0.335315 0.240994 0.647817 0.791109 1.26854 1.26487 1.26183 1.27144 0.499834 0.352972
0.672877 1.32559 1.12804 1.34985 0.134263 0.0681261 0.650932 1.32567 0.686052 0.756896
0.278702 0.748275 0.812405 0.467072 0.922069 0.315661 0.198884 0.289744 0.488799 0.10174
0.61709 0.628617 0.284445 0.364012 0.496368 0.225989 0.373842 0.398437 0.355975 0.43618
0.0567092 0.125985 1.02454 0.69487 0.614307 0.404245 0.63184 0.503733 0.223775 0.197457
0.883741 0.356317 0.754832 1.75767 0.502007 1.88463 0.654153 1.35091 0.849737 0.956169
0.686819 0.686819 0.694813 1.40268 1.42573 0.751861 1.42617 0.771339 1.28184 0.70475
0.594342 0.365241 0.444062 0.588049 0.511968 0.56855 0.279779 0.627637 1.21681 1.06569
1.18025 0.474039 0.711788 0.810752 1.05398 0.538995 0.609663 1.10417 0.292232 0.83146
0.856202 0.786124 1.23718 0.88642 1.25389 0.692564 1.03163 0.718512 0.717324 0.402562
0.764335 0.416035 0.398927 0.405471 0.73041 0.247529 0.996373 0.252812 0.19425 0.633704
0.509269 0.436603 0.626111 0.398022 0.490455 0.429924 0.503961 0.452229 0.93493 0.632439
0.984982 0.294906 0.53692 0.379178 0.721775 0.430031 0.401246 0.345254 0.425815 0.456521
0.279287 0.565693 1.14159 1.31544 0.508272 1.42777 0.495152 0.362264 1.42032 1.01927
0.443995 0.523467 0.235441 0.738572 0.489497 0.514899 0.423827 0.371826 0.5272 0.419365
0.4029 0.370582 0.550793 0.164873 0.28023 0.138901 0.174361 0.266509 0.187019 0.129646
0.0717271 0.0790929 0.11666 0.294066 0.472195 0.76473 1.22525 0.490874 1.23311 0.726572
1.20327 0.702697 0.716341 0.224071 0.5585 0.598996 0.483275 0.395502 0.535133 0.394412
0.472746 0.511887 0.413816 0.363443 0.236546 0.375823 0.257312 0.32529 0.470232 0.275173
0.413106 0.568545 0.267216 0.288571 1.25574 1.22132 1.21761 1.26257 0.512248 0.568614
0.22477 0.546109 0.565219 0.622474 0.459616 0.223989 0.265832 0.237538 0.511469 0.492559
0.285073 0.271963 0.406473 0.332229 0.548242 0.166465 0.827679 1.2993 1.26849 1.10522
0.621947 0.946607 1.09116 0.42594 0.742035 0.609562 0.502235 0.240138 0.11903 0.222671
0.575928 0.546659 0.184955 0.113439 0.217627 0.263906 0.436573 1.0873 0.479939 1.01796
0.800498 0.614142 0.494389 1.00082 0.367162 0.841636 0.5814 0.827517 0.696555 1.0826
0.444162 0.820809 0.335924 0.736476 0.604144 1.15476 0.686162 1.23211 0.897316 0.910886
0.997038 0.893928 0.873394 1.32035 1.2993 1.36034 0.718998 1.04147 0.998501 0.781553
1.33896 1.43122 0.833118 0.679721 0.901346 1.27902 0.616119 0.594269 1.22445 1.29348
0.955847 1.01776 0.614423 0.88257 0.7766 0.699851 0.669833 0.437415 0.977075 1.30442
1.25765 1.35721 0.871755 1.22954 1.01407 0.677126 0.565185 0.484347 0.924757 0.87693
1.52274 1.68022 1.10479 0.915087 1.36242 1.3479 1.23661 0.753295 0.904257 1.27768
1.26823 0.631662 0.875142 0.785188 1.3246 1.24371 0.76468 1.33077 0.90782 0.800277
0.413869 0.517119 0.597874 0.217495 0.391622 0.71915 0.541384 0.459789 0.308976 0.359122
0.496317 0.784682 0.738264 0.608921 0.680464 0.46404 0.397311 0.255928 0.812984 0.278847
0.739075 0.646236 0.732719 1.37532 1.21742 1.11411 0.366718 0.569463 0.553199 0.849516
0.455246 0.343809 0.328878 0.943465 0.830925 0.853948 0.578693 1.18101 1.46937 0.934805
1.36513 0.970294 0.687101 0.800636 0.573112 0.997536 0.366807 0.517041 0.278796 0.306735
1.31146 0.714984 1.10778 1.30348 1.2681 0.55519 0.396104 0.566551 0.38252 0.463936
0.683256 1.13669 1.35912 1.35206 0.983051 0.720502 0.57598 1.0094 0.576932 0.877882
0.838615 1.2059 1.37658 1.39841 0.728895 0.930865 0.781118 0.372805 1.16557 0.674406
1.12045 1.29049 1.31684 0.812296 0.812296 1.00107 0.939897 0.575089 1.22767 1.27117
0.889097 1.18188 1.27666 0.891515 0.333567 0.521682 0.690347 0.774526 0.422394 0.512758
1.07144 0.537548 0.563728 0.513911 0.533787 0.416115 1.60591 0.675913 1.53887 1.19084
1.73837 1.01958 1.09449 1.66759 1.13773 1.35065 1.46109 0.701242 0.608753 0.618381
1.3082 0.925841 1.45795 1.05922 1.11922 0.438341 0.9991 0.475226 0.58992 0.698298
0.617483 0.506297 0.745137 0.488876 0.662842 0.826009 0.543487 0.974321 0.979487 0.741025
1.08443 0.907666 0.425097 0.370712 0.278378 0.757952 0.553408 0.943361 0.400498 0.499569
0.437063 0.413749 0.272695 1.12323 0.344487 0.488357 1.28416 1.33329 1.11645 0.962348
1.10777 0.575143 1.04414 0.662806 1.20476 1.23287 1.24772 1.17699 0.715954 0.678691
0.353896 0.611418 0.807336 0.447171 0.425976 0.757056 0.519388 0.756072 0.487955 0.556893
0.51693 0.6763 0.604038 1.05874 0.822345 1.0775 1.03625 0.650231 0.774421 0.921926
1.02977 0.554492 0.620479 0.411808 0.223511 0.242672 0.401365 0.347782 0.449577 0.27699
0.338857 0.386934 0.513534 0.32536 0.551638 0.483643 0.475658 0.349324 0.268499 0.489021
0.377104 0.4893 0.496409 0.431745 1.26955 0.370921 0.681116 0.482363 0.254733 0.62181
0.523614 0.955547 0.864444 0.710555 0.617852 0.652601 0.440613 0.551848 1.45423 0.872708
0.731085 0.904635 0.729043 0.514384 0.565164 0.433174 0.917792 0.751143 0.128394 0.68811
0.419018 0.196955 0.0767088 0.112536 0.543906 0.524629 0.613992 0.956801 0.288709 0.177399
0.433266 0.185295 0.85092 0.716876 1.14639 0.750459 0.737058 1.14543 1.28614 0.752803
1.07769 0.585748 0.993577 0.424595 0.648681 0.535549 0.885184 0.772578 1.12257 0.73559
0.59472 0.730626 0.609806 0.795158 0.747341 0.827978 0.637882 0.0570057 0.22002 0.103648
0.049532 0.329812 0.228007 0.0652499 0.565677 0.39046 0.220852 0.225492 0.340348 0.227831
0.277616 0.202225 0.113074 0.100628 0.249179 0.533523 0.370949 0.372093 0.506637 0.157891
0.270332 0.148292 0.489197 0.51673 0.675299 0.310659 0.65306 0.772218 0.124445 0.128153
0.261869 0.175054 0.329314 0.397744 0.41326 0.562997 0.504104 0.313743 0.40725 0.21518
0.624946 0.189949 0.0964107 0.331529 0.256755 0.395016 0.244356 0.23976 0.354304 0.313712
0.150741 0.446273 0.217776 0.175412 0.329125 0.225153 0.215252 0.289725 0.29296 0.142254