# vtk DataFile Version 2.0
sampleSurface
ASCII
DATASET POLYDATA
POINTS 28170 float
-1324.36 -1350.27 1.5 -1424.05 -1350.27 1.5 -1424.05 -1421.34 1.5 -1324.36 -1421.34
1.5 -1224.68 -1350.27 1.5 -1224.68 -1421.34 1.5 -1125 -1350.27 1.5
-1125 -1421.34 1.5 -1025.31 -1350.27 1.5 -1025.31 -1421.34 1.5 -925.631
-1350.27 1.5 -925.631 -1421.34 1.5 -825.947 -1350.27 1.5 -825.947 -1421.34
1.5 -726.264 -1350.27 1.5 -726.264 -1421.34 1.5 -626.581 -1350.27 1.5
-626.581 -1421.34 1.5 -526.897 -1350.27 1.5 -526.897 -1421.34 1.5 -427.214
-1350.27 1.5 -427.214 -1421.34 1.5 -327.531 -1350.27 1.5 -327.531 -1421.34
1.5 -227.847 -1350.27 1.5 -227.847 -1421.34 1.5 -128.164 -1350.27 1.5
-128.164 -1421.34 1.5 -28.4808 -1350.27 1.5 -28.4808 -1421.34 1.5 71.2025
-1350.27 1.5 71.2025 -1421.34 1.5 170.886 -1350.27 1.5 170.886 -1421.34
1.5 270.569 -1350.27 1.5 270.569 -1421.34 1.5 370.252 -1350.27 1.5
370.252 -1421.34 1.5 469.936 -1350.27 1.5 469.936 -1421.34 1.5 569.619
-1350.27 1.5 569.619 -1421.34 1.5 669.302 -1350.27 1.5 669.302 -1421.34
1.5 768.986 -1350.27 1.5 768.986 -1421.34 1.5 868.669 -1350.27 1.5
868.669 -1421.34 1.5 968.352 -1350.27 1.5 968.352 -1421.34 1.5 1068.04
-1350.27 1.5 1068.04 -1421.34 1.5 1167.72 -1350.27 1.5 1167.72 -1421.34
1.5 1267.4 -1350.27 1.5 1267.4 -1421.34 1.5 1367.09 -1350.27 1.5
1367.09 -1421.34 1.5 1466.77 -1350.27 1.5 1466.77 -1421.34 1.5 1566.45
-1350.27 1.5 1566.45 -1421.34 1.5 1666.14 -1350.27 1.5 1666.14 -1421.34
1.5 1765.82 -1350.27 1.5 1765.82 -1421.34 1.5 1865.5 -1350.27 1.5
1865.5 -1421.34 1.5 1965.19 -1350.27 1.5 1965.19 -1421.34 1.5 2064.87
-1350.27 1.5 2064.87 -1421.34 1.5 2164.55 -1350.27 1.5 2164.55 -1421.34
1.5 2264.24 -1350.27 1.5 2264.24 -1421.34 1.5 2363.92 -1350.27 1.5
2363.92 -1421.34 1.5 2463.6 -1350.27 1.5 2463.6 -1421.34 1.5 2563.29
-1350.27 1.5 2563.29 -1421.34 1.5 2662.97 -1350.27 1.5 2662.97 -1421.34
1.5 2762.65 -1350.27 1.5 2762.65 -1421.34 1.5 2862.34 -1350.27 1.5
2862.34 -1421.34 1.5 2962.02 -1350.27 1.5 2962.02 -1421.34 1.5 3061.7
-1350.27 1.5 3061.7 -1421.34 1.5 3161.39 -1350.27 1.5 3161.39 -1421.34
1.5 3261.07 -1350.27 1.5 3261.07 -1421.34 1.5 3360.75 -1350.27 1.5
3360.75 -1421.34 1.5 3460.44 -1350.27 1.5 3460.44 -1421.34 1.5 3560.12
-1421.34 1.5 3560.12 -1350.27 1.5 -1324.36 -1279.2 1.5 -1424.05 -1279.2
1.5 -1224.68 -1279.2 1.5 -1125 -1279.2 1.5 -1025.31 -1279.2 1.5
-925.631 -1279.2 1.5 -825.947 -1279.2 1.5 -726.264 -1279.2 1.5 -626.581
-1279.2 1.5 -526.897 -1279.2 1.5 -427.214 -1279.2 1.5 -327.531 -1279.2
1.5 -227.847 -1279.2 1.5 -128.164 -1279.2 1.5 -28.4808 -1279.2 1.5
71.2024 -1279.2 1.5 170.886 -1279.2 1.5 270.569 -1279.2 1.5 370.252
-1279.2 1.5 469.936 -1279.2 1.5 569.619 -1279.2 1.5 669.302 -1279.2
1.5 768.986 -1279.2 1.5 868.669 -1279.2 1.5 968.352 -1279.2 1.5
1068.04 -1279.2 1.5 1167.72 -1279.2 1.5 1267.4 -1279.2 1.5 1367.09
-1279.2 1.5 1466.77 -1279.2 1.5 1566.45 -1279.2 1.5 1666.14 -1279.2
1.5 1765.82 -1279.2 1.5 1865.5 -1279.2 1.5 1965.19 -1279.2 1.5
2064.87 -1279.2 1.5 2164.55 -1279.2 1.5 2264.24 -1279.2 1.5 2363.92
-1279.2 1.5 2463.6 -1279.2 1.5 2563.29 -1279.2 1.5 2662.97 -1279.2
1.5 2762.65 -1279.2 1.5 2862.34 -1279.2 1.5 2962.02 -1279.2 1.5
3061.7 -1279.2 1.5 3161.39 -1279.2 1.5 3261.07 -1279.2 1.5 3360.75
-1279.2 1.5 3460.44 -1279.2 1.5 3560.12 -1279.2 1.5 -1324.36 -1208.14
1.5 -1424.05 -1208.14 1.5 -1224.68 -1208.14 1.5 -1125 -1208.14 1.5
-1025.31 -1208.14 1.5 -925.631 -1208.14 1.5 -825.947 -1208.14 1.5 -726.264
-1208.14 1.5 -626.581 -1208.14 1.5 -526.897 -1208.14 1.5 -427.214 -1208.14
1.5 -327.531 -1208.14 1.5 -227.847 -1208.14 1.5 -128.164 -1208.14 1.5
-28.4809 -1208.14 1.5 71.2024 -1208.14 1.5 170.886 -1208.14 1.5 270.569
-1208.14 1.5 370.252 -1208.14 1.5 469.936 -1208.14 1.5 569.619 -1208.14
1.5 669.302 -1208.14 1.5 768.985 -1208.14 1.5 868.669 -1208.14 1.5
968.352 -1208.14 1.5 1068.04 -1208.14 1.5 1167.72 -1208.14 1.5 1267.4
-1208.14 1.5 1367.09 -1208.14 1.5 1466.77 -1208.14 1.5 1566.45 -1208.14
1.5 1666.14 -1208.14 1.5 1765.82 -1208.14 1.5 1865.5 -1208.14 1.5
1965.19 -1208.14 1.5 2064.87 -1208.14 1.5 2164.55 -1208.14 1.5 2264.24
-1208.14 1.5 2363.92 -1208.14 1.5 2463.6 -1208.14 1.5 2563.29 -1208.14
1.5 2662.97 -1208.14 1.5 2762.65 -1208.14 1.5 2862.34 -1208.14 1.5
2962.02 -1208.14 1.5 3061.7 -1208.14 1.5 3161.39 -1208.14 1.5 3261.07
-1208.14 1.5 3360.75 -1208.14 1.5 3460.44 -1208.14 1.5 3560.12 -1208.14
1.5 -1324.36 -1137.07 1.5 -1424.05 -1137.07 1.5 -1224.68 -1137.07 1.5
-1125 -1137.07 1.5 -1025.31 -1137.07 1.5 -925.631 -1137.07 1.5 -825.947
-1137.07 1.5 -726.264 -1137.07 1.5 -626.581 -1137.07 1.5 -526.897 -1137.07
1.5 -427.214 -1137.07 1.5 -327.531 -1137.07 1.5 -227.847 -1137.07 1.5
-128.164 -1137.07 1.5 -28.481 -1137.07 1.5 71.2023 -1137.07 1.5 170.886
-1137.07 1.5 270.569 -1137.07 1.5 370.252 -1137.07 1.5 469.936 -1137.07
1.5 569.619 -1137.07 1.5 669.302 -1137.07 1.5 768.985 -1137.07 1.5
868.669 -1137.07 1.5 968.352 -1137.07 1.5 1068.04 -1137.07 1.5 1167.72
-1137.07 1.5 1267.4 -1137.07 1.5 1367.09 -1137.07 1.5 1466.77 -1137.07
1.5 1566.45 -1137.07 1.5 1666.14 -1137.07 1.5 1765.82 -1137.07 1.5
1865.5 -1137.07 1.5 1965.19 -1137.07 1.5 2064.87 -1137.07 1.5 2164.55
-1137.07 1.5 2264.24 -1137.07 1.5 2363.92 -1137.07 1.5 2463.6 -1137.07
1.5 2563.29 -1137.07 1.5 2662.97 -1137.07 1.5 2762.65 -1137.07 1.5
2862.34 -1137.07 1.5 2962.02 -1137.07 1.5 3061.7 -1137.07 1.5 3161.39
-1137.07 1.5 3261.07 -1137.07 1.5 3360.75 -1137.07 1.5 3460.44 -1137.07
1.5 3560.12 -1137.07 1.5 -1324.36 -1066 1.5 -1424.05 -1066 1.5
-1224.68 -1066 1.5 -1125 -1066 1.5 -1025.31 -1066 1.5 -925.631
-1066 1.5 -825.947 -1066 1.5 -726.264 -1066 1.5 -626.581 -1066
1.5 -526.897 -1066 1.5 -427.214 -1066 1.5 -327.531 -1066 1.5
-227.848 -1066 1.5 -128.164 -1066 1.5 -28.4811 -1066 1.5 71.2022
-1066 1.5 170.885 -1066 1.5 270.569 -1066 1.5 370.252 -1066
1.5 469.935 -1066 1.5 569.619 -1066 1.5 669.302 -1066 1.5
768.985 -1066 1.5 868.669 -1066 1.5 968.352 -1066 1.5 1068.04
-1066 1.5 1167.72 -1066 1.5 1267.4 -1066 1.5 1367.08 -1066
1.5 1466.77 -1066 1.5 1566.45 -1066 1.5 1666.13 -1066 1.5
1765.82 -1066 1.5 1865.5 -1066 1.5 1965.19 -1066 1.5 2064.87
-1066 1.5 2164.55 -1066 1.5 2264.24 -1066 1.5 2363.92 -1066
1.5 2463.6 -1066 1.5 2563.29 -1066 1.5 2662.97 -1066 1.5
2762.65 -1066 1.5 2862.34 -1066 1.5 2962.02 -1066 1.5 3061.7
-1066 1.5 3161.39 -1066 1.5 3261.07 -1066 1.5 3360.75 -1066
1.5 3460.44 -1066 1.5 3560.12 -1066 1.5 -1324.36 -994.936 1.5
-1424.05 -994.936 1.5 -1224.68 -994.936 1.5 -1125 -994.936 1.5 -1025.31
-994.936 1.5 -925.631 -994.936 1.5 -825.947 -994.936 1.5 -726.264 -994.936
1.5 -626.581 -994.936 1.5 -526.897 -994.936 1.5 -427.214 -994.935 1.5
-327.531 -994.935 1.5 -227.848 -994.935 1.5 -128.164 -994.934 1.5 -28.4812
-994.934 1.5 71.202 -994.934 1.5 170.885 -994.935 1.5 270.569 -994.935
1.5 370.252 -994.935 1.5 469.935 -994.936 1.5 569.619 -994.936 1.5
669.302 -994.936 1.5 768.985 -994.936 1.5 868.669 -994.936 1.5 968.352
-994.936 1.5 1068.04 -994.936 1.5 1167.72 -994.936 1.5 1267.4 -994.936
1.5 1367.08 -994.936 1.5 1466.77 -994.936 1.5 1566.45 -994.936 1.5
1666.13 -994.936 1.5 1765.82 -994.936 1.5 1865.5 -994.936 1.5 1965.18
-994.936 1.5 2064.87 -994.936 1.5 2164.55 -994.936 1.5 2264.24 -994.936
1.5 2363.92 -994.936 1.5 2463.6 -994.936 1.5 2563.29 -994.936 1.5
2662.97 -994.936 1.5 2762.65 -994.936 1.5 2862.34 -994.936 1.5 2962.02
-994.936 1.5 3061.7 -994.936 1.5 3161.39 -994.936 1.5 3261.07 -994.936
1.5 3360.75 -994.936 1.5 3460.44 -994.936 1.5 3560.12 -994.936 1.5
-1324.36 -923.869 1.5 -1424.05 -923.869 1.5 -1224.68 -923.869 1.5 -1125
-923.869 1.5 -1025.31 -923.869 1.5 -925.631 -923.869 1.5 -825.947 -923.869
1.5 -875.789 -923.869 1.5 -726.264 -923.869 1.5 -776.106 -923.869 1.5
-626.581 -923.869 1.5 -676.422 -923.869 1.5 -526.897 -923.869 1.5 -576.739
-923.869 1.5 -427.214 -923.869 1.5 -477.056 -923.869 1.5 -327.531 -923.868
1.5 -377.372 -923.869 1.5 -227.848 -923.868 1.5 -277.689 -923.868 1.5
-128.164 -923.868 1.5 -178.006 -923.868 1.5 -28.4812 -923.868 1.5 -78.3229
-923.868 1.5 71.202 -923.868 1.5 21.3604 -923.868 1.5 170.885 -923.868
1.5 121.044 -923.868 1.5 270.569 -923.868 1.5 220.727 -923.868 1.5
370.252 -923.869 1.5 320.41 -923.869 1.5 469.935 -923.869 1.5 420.094
-923.869 1.5 569.619 -923.869 1.5 519.777 -923.869 1.5 669.302 -923.869
1.5 619.461 -923.869 1.5 768.985 -923.869 1.5 719.144 -923.869 1.5
868.669 -923.869 1.5 818.827 -923.869 1.5 968.352 -923.869 1.5 918.511
-923.869 1.5 1068.04 -923.869 1.5 1167.72 -923.869 1.5 1267.4 -923.869
1.5 1367.08 -923.869 1.5 1466.77 -923.869 1.5 1566.45 -923.869 1.5
1666.13 -923.869 1.5 1765.82 -923.869 1.5 1865.5 -923.869 1.5 1965.18
-923.869 1.5 2064.87 -923.869 1.5 2164.55 -923.869 1.5 2264.23 -923.869
1.5 2363.92 -923.869 1.5 2463.6 -923.869 1.5 2563.29 -923.869 1.5
2662.97 -923.869 1.5 2762.65 -923.869 1.5 2862.34 -923.869 1.5 2962.02
-923.869 1.5 3061.7 -923.869 1.5 3161.39 -923.869 1.5 3261.07 -923.869
1.5 3360.75 -923.869 1.5 3460.44 -923.869 1.5 3560.12 -923.869 1.5
-1324.36 -852.802 1.5 -1424.05 -852.802 1.5 -1224.68 -852.802 1.5 -1125
-852.802 1.5 -1025.31 -852.802 1.5 -925.631 -888.336 1.5 -925.631 -852.802
1.5 -875.789 -888.336 1.5 -776.106 -888.336 1.5 -801.027 -888.336 1.5
-825.947 -888.336 1.5 -676.422 -888.336 1.5 -701.343 -888.336 1.5 -726.264
-888.336 1.5 -576.739 -888.336 1.5 -601.66 -888.336 1.5 -626.581 -888.336
1.5 -477.056 -888.336 1.5 -501.977 -888.336 1.5 -526.898 -888.336 1.5
-377.373 -888.336 1.5 -402.293 -888.336 1.5 -427.214 -888.336 1.5 -277.689
-888.336 1.5 -302.61 -888.336 1.5 -327.531 -888.336 1.5 -178.006 -888.336
1.5 -202.927 -888.336 1.5 -227.848 -888.336 1.5 -78.3226 -888.336 1.5
-103.243 -888.336 1.5 -128.164 -888.336 1.5 21.3607 -888.336 1.5 -3.56012
-888.336 1.5 -28.4809 -888.336 1.5 121.044 -888.336 1.5 96.1232 -888.336
1.5 71.2024 -888.336 1.5 220.727 -888.336 1.5 195.807 -888.336 1.5
170.886 -888.336 1.5 320.411 -888.336 1.5 295.49 -888.336 1.5 270.569
-888.336 1.5 420.094 -888.336 1.5 395.173 -888.336 1.5 370.252 -888.336
1.5 519.777 -888.336 1.5 494.856 -888.336 1.5 469.936 -888.336 1.5
[...]
CELL_DATA 27336
FIELD attributes 2
k 1 27336 float
3.37371 2.45233 2.11958 1.95275 1.83997 1.76358 1.70692 1.65912 1.61778 1.58272 1.55287
1.52682 1.50359 1.48251 1.46306 1.44485 1.42767 1.4115 1.3964 1.38249 1.36989
1.35873 1.34901 1.34065 1.3334 1.3269 1.32075 1.31469 1.30856 1.30235 1.29612
1.28994 1.28384 1.27784 1.27198 1.26626 1.2607 1.2553 1.25005 1.24497 1.24004
1.23526 1.23063 1.22615 1.2218 1.2176 1.21361 1.20915 1.20671 1.20035 3.3737
2.45233 2.11964 1.9529 1.84013 1.76365 1.70678 1.65877 1.61736 1.58238 1.55265
1.52673 1.50361 1.48261 1.46319 1.44496 1.42773 1.41146 1.39625 1.38224 1.36957
1.35836 1.34867 1.34041 1.3333 1.32694 1.3209 1.31489 1.30875 1.3025 1.29623
1.29 1.28387 1.27785 1.27197 1.26624 1.26067 1.25525 1.25 1.24491 1.23997
1.23519 1.23056 1.22608 1.22172 1.21752 1.21354 1.20908 1.20663 1.20027 3.3737
2.45237 2.11979 1.95316 1.84048 1.76386 1.7065 1.65799 1.61645 1.58165 1.5522
1.52655 1.50368 1.48287 1.46353 1.44526 1.42789 1.41141 1.39595 1.38171 1.36885
1.35755 1.34789 1.33981 1.333 1.32694 1.32112 1.3152 1.30905 1.30274 1.29642
1.29016 1.28399 1.27795 1.27205 1.26631 1.26073 1.25531 1.25005 1.24496 1.24002
1.23524 1.2306 1.22612 1.22175 1.21755 1.21356 1.2091 1.20665 1.20028 3.3737
2.45245 2.12004 1.9536 1.84109 1.7643 1.70607 1.65676 1.6151 1.58063 1.55159
1.52634 1.50384 1.48329 1.46407 1.44574 1.42816 1.41139 1.39558 1.38099 1.36786
1.35641 1.3468 1.33906 1.33276 1.32716 1.32166 1.31584 1.30959 1.30312 1.29666
1.29029 1.28404 1.27793 1.27198 1.2662 1.26059 1.25515 1.24987 1.24477 1.23982
1.23503 1.23038 1.2259 1.22154 1.21733 1.21334 1.20887 1.20642 1.20005 3.37371
2.45256 2.12038 1.95432 1.84231 1.76528 1.70541 1.65473 1.61304 1.57921 1.55088
1.52629 1.50435 1.48419 1.46509 1.44661 1.42868 1.41137 1.39498 1.37985 1.36628
1.35458 1.34507 1.33772 1.33218 1.32731 1.32238 1.31676 1.31041 1.30375 1.29715
1.29069 1.28437 1.2782 1.27221 1.2664 1.26077 1.25531 1.25002 1.2449 1.23994
1.23514 1.23049 1.226 1.22163 1.21741 1.21342 1.20893 1.20648 1.20011 3.37372
2.4527 2.12078 1.95519 1.84416 1.76738 1.70496 1.65227 1.61073 1.57785 1.55046
1.52677 1.50565 1.48606 1.46717 1.44853 1.43008 1.41208 1.39494 1.37902 1.36478
1.35262 1.34319 1.33687 1.33232 1.32813 1.3237 1.31812 1.31145 1.30449 1.29769
1.29109 1.28467 1.27843 1.2724 1.26656 1.2609 1.25543 1.25013 1.24501 1.24004
1.23525 1.23059 1.2261 1.22173 1.21752 1.21351 1.20902 1.20657 1.20017 3.37372
2.45277 2.12104 1.95636 1.84672 1.77114 1.70244 1.6478 1.60827 1.57805 1.55275
1.53067 1.51075 1.49186 1.473 1.45372 1.43408 1.41478 1.39645 1.37954 1.36465
1.35227 1.34288 1.33861 1.3369 1.33438 1.33049 1.32414 1.31628 1.30845 1.3011
1.29407 1.28729 1.28074 1.27445 1.26838 1.26253 1.25689 1.25144 1.24619 1.24111
1.23621 1.23147 1.2269 1.22245 1.21816 1.21411 1.20954 1.20707 1.20059 3.37375
2.45274 2.11906 1.96336 1.77946 1.63869 1.69083 1.65367 1.62092 1.59591 1.57457
1.55588 1.53854 1.52109 1.5024 1.48206 1.46066 1.43918 1.41876 1.40018 1.38425
1.37139 1.36764 1.32934 1.45893 1.44052 1.40451 1.37788 1.35805 1.3431 1.33101
1.32046 1.31088 1.30209 1.29394 1.28632 1.27915 1.27236 1.26593 1.2598 1.25395
1.24835 1.24298 1.23784 1.23288 1.22811 1.22363 1.21858 1.21587 1.20876 3.37376
2.45287 2.11943 1.96528 1.78404 1.61482 1.64631 1.62541 1.56015 1.48392 1.43835
1.40761 1.38532 1.36775 1.35282 1.33969 1.32796 1.31737 1.30769 1.29876 1.29045
1.28269 1.2754 1.26853 1.26202 1.25584 1.24998 1.24435 1.23898 1.23399 1.22834
1.22537 1.21751 3.37377 2.45303 2.11999 1.96664 1.7875 1.62338 1.66519 1.6354
1.56827 1.48994 1.44307 1.41146 1.38855 1.37048 1.35513 1.34161 1.32955 1.31867
1.30873 1.29957 1.29105 1.2831 1.27564 1.26861 1.26197 1.25566 1.24968 1.24395
1.23848 1.2334 1.22763 1.22463 1.21658 3.37378 2.45314 2.12032 1.96741 1.78886
1.62517 1.65938 1.63263 1.56687 1.48977 1.44331 1.41162 1.38848 1.37023 1.35473
1.3411 1.32896 1.31801 1.30802 1.29883 1.2903 1.28234 1.27488 1.26786 1.26122
1.25493 1.24896 1.24325 1.23779 1.23273 1.22697 1.22398 1.21601 3.37379 2.45316
2.12039 1.96753 1.78876 1.62497 1.6536 1.63002 1.56558 1.48952 1.44341 1.41168
1.38844 1.37008 1.35448 1.34075 1.3285 1.31746 1.30738 1.29809 1.28949 1.28145
1.27393 1.26684 1.26015 1.2538 1.24779 1.24204 1.23654 1.23146 1.22565 1.22266
1.21457 3.3738 2.4531 2.1202 1.96715 1.78778 1.62367 1.64608 1.62554 1.56238
1.48754 1.44208 1.41069 1.38758 1.36928 1.35371 1.33999 1.32774 1.3167 1.30663
1.29736 1.28877 1.28076 1.27326 1.2662 1.25954 1.25322 1.24723 1.2415 1.23602
1.23095 1.22515 1.22217 1.21417 3.3738 2.45298 2.11983 1.96639 1.7862 1.62167
1.63512 1.61383 1.55251 1.4797 1.43523 1.40423 1.38121 1.3629 1.34728 1.33348
1.32115 1.31004 1.29991 1.2906 1.28199 1.27398 1.26649 1.25946 1.25284 1.24657
1.24064 1.23498 1.22956 1.22458 1.21885 1.21594 1.20798 3.3738 2.45281 2.11933
1.9654 1.78425 1.61922 1.61747 1.62776 1.56645 1.49395 1.44988 1.41893 1.39579
1.3773 1.36149 1.3475 1.33496 1.32364 1.31332 1.30381 1.29499 1.28677 1.27908
1.27184 1.26501 1.25854 1.2524 1.24653 1.24092 1.23573 1.22981 1.22674 1.21857
3.37379 2.45262 2.11877 1.9643 1.78215 1.61654 1.68596 1.64515 1.5803 1.50541
1.46007 1.42785 1.4034 1.38374 1.36686 1.35191 1.33853 1.32649 1.31555 1.30552
1.29627 1.28769 1.2797 1.27221 1.26517 1.25853 1.25225 1.24627 1.24056 1.23531
1.22934 1.22624 1.21799 3.37379 2.45244 2.11822 1.96321 1.78009 1.61385 1.62906
1.56766 1.5185 1.45963 1.4241 1.39835 1.37884 1.36324 1.34979 1.33777 1.32694
1.31712 1.30812 1.29981 1.29208 1.28485 1.27807 1.27167 1.26562 1.25987 1.25441
1.24918 1.24418 1.23951 1.23428 1.23143 1.2241 3.37377 2.45227 2.11773 1.96225
1.77826 1.61139 1.76344 1.82068 1.75506 1.67167 1.61835 1.57975 1.55055 1.52697
1.50658 1.4883 1.47173 1.45659 1.44266 1.42973 1.41765 1.40633 1.39567 1.38559
1.37603 1.36693 1.35825 1.34996 1.34196 1.33461 1.32628 1.32157 1.31022 3.37376
2.45216 2.11737 1.96153 1.77688 1.60943 1.8223 1.6114 1.5425 1.45461 1.39464
1.35054 1.31823 1.29362 1.27367 1.25698 1.24285 1.23078 1.22035 1.21122 1.20315
1.19595 1.18948 1.18362 1.17826 1.17334 1.1688 1.16457 1.16063 1.15701 1.15314
1.15093 1.14557 3.37375 2.4521 2.11717 1.96113 1.7761 1.60818 0.722367 1.16839
1.15864 1.14307 1.13144 1.12129 1.11501 1.1119 1.11023 1.10923 1.10868 1.10843
1.10832 1.10826 1.1082 1.10809 1.10791 1.10765 1.10732 1.10691 1.10644 1.10587
1.1053 1.10454 1.10385 1.10321 1.10156 3.37374 2.45209 2.11715 1.96109 1.77601
1.60784 2.19447 1.80889 1.70726 1.58976 1.51359 1.45802 1.41673 1.38487 1.35897
1.33719 1.31858 1.30245 1.28826 1.2756 1.2642 1.25383 1.24433 1.23556 1.22742
1.21982 1.21269 1.20599 1.19961 1.19382 1.18733 1.18371 1.17517 3.37374 2.45215
2.11731 1.96141 1.77664 1.60841 0.687813 0.888939 0.940589 0.958468 0.95859 0.954714
0.949715 0.946635 0.944476 0.942839 0.94175 0.94116 0.941019 0.941172 0.941598 0.942282
0.943113 0.944064 0.945109 0.946217 0.947384 0.948542 0.949807 0.950868 0.952385 0.953073
0.954184 3.37373 2.45225 2.11764 1.96206 1.77789 1.60982 2.01263 2.10546 1.9451
1.78224 1.68089 1.61022 1.55818 1.51802 1.48557 1.45855 1.43568 1.41604 1.39892
1.3838 1.37028 1.35808 1.34699 1.3368 1.32738 1.31862 1.31045 1.30274 1.29549
1.28871 1.28156 1.27716 1.26741 3.37374 2.45241 2.1181 1.96297 1.77961 1.61189
2.00572 1.7763 1.72381 1.66278 1.62642 1.60128 1.58288 1.5683 1.55537 1.54323
1.53168 1.52064 1.51002 1.49977 1.48985 1.48025 1.47094 1.46192 1.45315 1.44463
1.43637 1.42833 1.42052 1.41308 1.4049 1.39993 1.38845 3.37374 2.4526 2.11864
1.96402 1.7816 1.61439 1.61661 1.59155 1.5313 1.46384 1.4232 1.39446 1.37295
1.35599 1.34166 1.32912 1.31801 1.30812 1.29921 1.2911 1.28368 1.27684 1.27049
1.26457 1.25903 1.25381 1.2489 1.24423 1.23982 1.23568 1.23118 1.22865 1.22231
3.37375 2.45278 2.11918 1.96511 1.7837 1.61708 1.62261 1.60043 1.54059 1.47026
1.42777 1.39795 1.37556 1.35761 1.34219 1.32854 1.31632 1.30529 1.29523 1.28598
1.27742 1.26946 1.26202 1.25504 1.24846 1.24223 1.23634 1.23073 1.22536 1.22042
1.2148 1.21189 1.20416 3.37375 2.45294 2.11969 1.96611 1.78567 1.61973 1.64607
1.61793 1.55555 1.48233 1.438 1.40708 1.38408 1.36575 1.35011 1.33629 1.32393
1.31278 1.30261 1.29324 1.28456 1.27648 1.26893 1.26182 1.25513 1.24879 1.24279
1.23706 1.23159 1.22654 1.22078 1.21782 1.2098 3.37375 2.45307 2.12007 1.96689
1.78731 1.6221 1.65238 1.62319 1.55978 1.48524 1.44007 1.40887 1.38589 1.36768
1.35216 1.33847 1.32623 1.31518 1.30511 1.29584 1.28726 1.27926 1.27177 1.26473
1.25809 1.25179 1.24583 1.24014 1.23469 1.22966 1.22392 1.22096 1.21301 3.37376
2.45313 2.12028 1.96732 1.78839 1.62398 1.65906 1.62893 1.56425 1.48814 1.44213
1.41057 1.38747 1.36923 1.35375 1.34012 1.32796 1.317 1.30699 1.29777 1.28922
1.28124 1.27376 1.26672 1.26008 1.25377 1.24779 1.24208 1.23661 1.23155 1.22578
1.22281 1.21478 3.37375 2.45311 2.12024 1.96725 1.78859 1.62501 1.66267 1.6315
1.56549 1.48838 1.44204 1.41047 1.38744 1.36926 1.35383 1.34025 1.32814 1.31721
1.30725 1.29806 1.28955 1.2816 1.27416 1.26715 1.26053 1.25425 1.2483 1.24262
1.23718 1.23215 1.22641 1.22345 1.21549 3.37375 2.45301 2.11993 1.96653 1.78734
1.62446 1.66682 1.63463 1.5673 1.48891 1.44209 1.41056 1.38773 1.36973 1.35444
1.34099 1.32899 1.31815 1.30826 1.29914 1.29068 1.28278 1.27537 1.26838 1.26177
1.25551 1.24956 1.24387 1.23843 1.23339 1.22766 1.22468 1.2167 3.37374 2.45286
2.1194 1.96524 1.78397 1.6203 1.66463 1.62437 1.55899 1.48278 1.43727 1.40659
1.38437 1.36686 1.35199 1.33892 1.32724 1.31669 1.30705 1.29815 1.28988 1.28215
1.27488 1.26803 1.26155 1.25539 1.24955 1.24395 1.2386 1.23363 1.22801 1.22505
1.21721 3.37373 2.45274 2.11905 1.96335 1.77951 1.59675 1.52641 1.54102 1.53726
1.52994 1.52159 1.51318 1.50456 1.49482 1.48257 1.46742 1.44959 1.43034 1.41108
1.39281 1.37636 1.36188 1.3467 1.50494 1.45764 1.43915 1.40318 1.37662 1.35687
1.34198 1.32996 1.31947 1.30996 1.30122 1.29313 1.28557 1.27844 1.27171 1.26532
1.25923 1.25342 1.24787 1.24254 1.23744 1.23251 1.22779 1.22334 1.21833 1.21565
1.20859 3.37371 2.45278 2.12106 1.9564 1.84679 1.77128 1.70273 1.6483 1.60905
1.57923 1.55438 1.5328 1.51332 1.49465 1.47568 1.45588 1.43554 1.41563 1.39686
1.37965 1.36453 1.352 1.34248 1.33805 1.33621 1.33359 1.32964 1.32328 1.31543
1.30762 1.30031 1.29332 1.28658 1.28008 1.27382 1.26779 1.26198 1.25637 1.25095
1.24573 1.24069 1.23581 1.2311 1.22655 1.22213 1.21787 1.21384 1.20929 1.20683
1.20038 3.3737 2.45272 2.12082 1.95526 1.8443 1.76758 1.70529 1.65277 1.61147
1.57889 1.55186 1.52855 1.50774 1.48834 1.46942 1.45049 1.4316 1.41315 1.39563
1.37941 1.36495 1.35264 1.34304 1.3366 1.33195 1.32767 1.32319 1.31758 1.3109
1.30395 1.29717 1.2906 1.2842 1.278 1.27199 1.26618 1.26056 1.25512 1.24985
1.24476 1.23982 1.23505 1.23043 1.22597 1.22162 1.21744 1.21346 1.209 1.20656
1.2002 3.3737 2.45258 2.12044 1.95442 1.84248 1.76554 1.7058 1.65529 1.61382
1.58026 1.55222 1.52793 1.50624 1.4862 1.46707 1.44838 1.43011 1.41243 1.39572
1.38032 1.36654 1.35466 1.34499 1.33752 1.33186 1.3269 1.32191 1.31625 1.30988
1.30322 1.29663 1.29019 1.28389 1.27775 1.27179 1.26601 1.2604 1.25497 1.24971
1.24462 1.23968 1.23491 1.23029 1.22582 1.22147 1.21728 1.21331 1.20885 1.20641
1.20005 3.37369 2.45247 2.12011 1.95373 1.84129 1.76459 1.70649 1.65736 1.6159
1.58166 1.55288 1.52787 1.50557 1.48512 1.46586 1.44737 1.42954 1.41246 1.39636
1.38152 1.36818 1.35655 1.34679 1.33891 1.33248 1.32679 1.32122 1.31535 1.30908
1.30261 1.29615 1.2898 1.28357 1.27748 1.27156 1.2658 1.26022 1.25481 1.24956
1.24448 1.23956 1.2348 1.23019 1.22573 1.22139 1.21721 1.21325 1.2088 1.20636
1.20003 3.37369 2.45239 2.11987 1.9533 1.8407 1.76419 1.70695 1.65862 1.61727
1.58268 1.55345 1.528 1.50529 1.48456 1.46519 1.44679 1.4292 1.41246 1.39674
1.38226 1.36919 1.35771 1.3479 1.33967 1.33275 1.3266 1.32071 1.31474 1.30857
1.30225 1.29593 1.28967 1.28353 1.27751 1.27163 1.26591 1.26036 1.25497 1.24974
1.24467 1.23976 1.235 1.23039 1.22594 1.2216 1.21742 1.21345 1.20901 1.20657
1.20023 3.37369 2.45236 2.11972 1.95305 1.84036 1.764 1.70726 1.65941 1.61818
1.58341 1.55388 1.52813 1.50515 1.48422 1.46477 1.44642 1.429 1.4125 1.39705
1.38281 1.36993 1.35854 1.34869 1.34029 1.33308 1.32662 1.32051 1.31445 1.30827
1.30201 1.29574 1.28952 1.2834 1.27741 1.27155 1.26584 1.2603 1.25491 1.24969
1.24462 1.23971 1.23496 1.23035 1.2259 1.22157 1.21739 1.21343 1.20899 1.20656
1.20022 3.3737 2.45236 2.11966 1.9529 1.84021 1.76393 1.7074 1.65977 1.6186
1.58374 1.55408 1.5282 1.50509 1.48408 1.4646 1.44627 1.42892 1.41253 1.3972
1.38306 1.37026 1.35892 1.34904 1.34054 1.33318 1.32659 1.32037 1.31426 1.3081
1.30187 1.29564 1.28946 1.28337 1.2774 1.27156 1.26587 1.26033 1.25495 1.24974
1.24468 1.23978 1.23503 1.23042 1.22597 1.22164 1.21746 1.2135 1.20906 1.20663
1.2003 0.827438 0.375224 0.0977127 0.782249 0.539506 0.279408 0.124503 1.06872 0.692325
1.22323 1.12655 0.234224 0.159333 0.540142 0.267142 1.08387 0.454761 0.212045 0.0356839
0.314038 1.25519 1.3294 1.32308 0.690502 0.549041 0.475114 0.774126 0.404634 0.987851
0.356791 0.306772 0.852514 0.395074 0.680816 0.334464 0.345523 0.574031 0.323191 0.497056
0.18234 0.298149 0.363248 0.346649 0.169993 0.0732262 0.175698 0.0923931 1.05108 0.66916
0.395309 0.71823 0.805994 0.503448 0.808305 0.191501 0.224138 0.522368 0.200035 0.791904
0.454226 0.88524 0.270635 0.346291 1.04331 0.826614 0.203552 0.218916 0.415025 0.152427
0.118019 0.229606 0.508849 0.857786 0.487164 1.29893 1.40604 1.43927 0.97853 1.24658
0.854751 0.841108 0.643448 1.28545 0.640545 0.60964 0.866189 0.968502 1.31696 0.826212
0.750778 0.78177 0.768011 0.663886 1.21997 0.3705 1.51164 0.238886 1.03921 0.313604
0.588175 0.679685 1.07696 1.55749 0.996204 1.03687 1.61621 0.122937 0.147791 0.397332
0.866356 0.59398 1.10738 0.289671 0.382742 0.356953 0.365898 1.65035 0.83674 1.01434
0.998051 1.69731 0.311702 0.197859 0.551893 0.360999 0.505062 0.404082 0.404082 0.645983
0.327314 0.594442 0.299548 0.269491 0.326985 0.299072 0.779406 0.378367 0.37797 0.336698
0.371344 0.716014 0.636658 1.05666 0.341427 0.626655 1.09247 0.839024 0.988013 0.151492
0.194264 0.276595 0.427855 0.502469 0.226357 0.907345 0.789205 0.923643 1.07597 0.238343
0.345168 0.201469 0.234046 0.157165 0.0960824 0.243602 0.0590329 1.26658 0.808448 1.13204
1.24227 0.536819 0.600857 0.659784 0.4647 0.661017 0.777507 0.544082 0.770487 0.178119
0.369359 0.288151 0.10309 0.130662 0.268152 0.497333 0.394136 0.353843 0.231505 0.335508
0.383919 0.534795 0.876826 0.714536 1.18598 0.646386 0.408896 0.242964 0.291193 0.214146
0.377177 1.29018 0.446933 0.78115 0.25184 0.320251 0.183036 0.176685 0.620089 0.34012
0.651712 0.164007 0.21177 0.325481 0.321256 0.921401 0.668148 0.665681 0.736504 0.791791
0.885203 0.429989 0.638801 0.458969 0.363391 0.41666 0.255385 0.225931 0.136188 0.203102
0.251484 0.304963 0.156182 0.167589 0.222648 0.817515 1.2592 1.26548 0.794046 0.550575
0.551103 0.597148 0.127555 0.174937 0.771269 0.935507 1.16936 0.382508 0.597372 0.226679
0.406701 0.369499 0.526361 1.00364 0.267664 0.909442 1.31512 0.849938 0.713248 1.01205
1.86553 1.64981 1.84166 0.10784 0.329217 1.1955 0.754843 1.43973 0.75601 1.40992
0.861403 0.916429 0.680292 0.58861 0.741542 1.15928 0.459513 0.396132 1.30023 1.41901
1.45424 1.30454 1.40291 0.771378 0.894969 1.31352 0.744617 1.07426 0.500834 0.321181
1.15547 0.394093 0.555326 0.468776 0.311566 0.961736 0.464612 0.552832 0.9683 0.358826
0.641978 0.613545 0.375177 0.891228 0.546101 1.38492 1.17162 1.17279 0.262654 0.427466
0.38938 0.526684 1.11007 0.465021 0.788248 1.4025 0.263294 0.317235 0.339006 0.700222
0.601262 0.407514 0.822322 0.858095 0.646854 0.426348 1.58671 0.777193 1.46764 1.12819
0.933635 0.569686 0.513268 1.14099 0.590893 1.14649 0.622998 0.872674 0.875708 0.504847
0.623019 0.41638 0.354261 0.414809 0.499745 0.487021 0.424264 0.699794 0.958453 0.42479
0.83638 0.586796 0.315285 0.213657 0.198838 0.457928 0.283242 0.263243 0.749962 0.406554
0.468826 0.356984 0.416205 0.432811 0.530267 0.636663 0.784361 0.942912 0.508831 0.849978
0.847306 0.472093 0.513007 0.347949 0.419323 0.363982 0.495099 0.404879 0.443657 0.315691
0.349972 0.220039 0.35299 0.566138 0.466678 0.421908 0.346447 0.610954 0.140583 0.22274
0.322225 0.29838 0.221461 0.345574 0.279868 0.191104 0.156243 0.197113 0.137097 0.211478
1.16394 0.778498 0.6854 1.20444 0.568171 0.32893 0.420671 0.801853 0.241064 0.767706
0.332137 0.178121 0.171136 0.285036 0.199447 0.343641 0.173714 0.240861 0.387444 0.218404
0.497535 0.327296 0.633455 0.397853 0.610478 1.14354 0.991873 0.648049 1.33554 0.792227
0.430296 1.54115 0.994101 0.675493 1.23236 1.17899 0.781267 0.570382 0.419004 0.947385
0.699166 0.572344 0.838068 0.743653 0.786735 0.708667 0.256331 0.318864 0.3019 0.289968
0.265525 0.197924 0.584337 0.324074 0.317434 0.266434 0.193406 0.270938 0.260577 0.615001
0.546755 0.579473 0.512692 0.239257 0.259049 0.767746 0.693134 0.361866 0.358808 0.190491
0.262172 0.287083 0.240522 0.0718981 0.34689 0.167118 0.753768 0.629818 1.0385 1.0081
0.703936 1.16974 0.985639 0.890536 0.654201 1.07211 0.412675 0.376884 0.709833 1.164
1.24156 0.947615 1.46296 0.575662 0.518387 1.0375 1.65052 1.53239 0.963857 0.983734
0.636809 1.38347 1.00834 0.623431 1.20601 1.44764 1.51349 1.48942 1.48792 1.19364
0.835573 0.720691 0.762954 1.4793 1.0439 1.36554 1.40751 0.560219 0.530999 0.437838
0.727193 0.834212 0.905275 1.34902 1.00174 1.40342 1.43751 1.37009 1.38915 1.4099
1.29406 0.611277 1.25125 0.846266 0.971806 0.843075 0.565038 1.30404 0.759941 0.903322
0.612862 0.54994 0.588908 1.22797 0.55762 0.695737 1.2297 0.400469 0.791153 0.66849
0.870697 0.679576 0.542357 1.14834 0.650648 0.58087 0.699935 0.642439 0.717648 0.974929
0.664566 1.23914 0.7635 0.729299 0.32603 0.767677 0.958142 0.23393 0.746771 1.30342
1.31721 0.643415 1.42951 0.95392 0.296797 0.372854 0.592763 0.445495 1.13097 0.442529
0.463946 0.921589 0.374561 0.79702 0.522352 0.561576 0.595851 1.18687 0.561876 0.572489
0.658263 0.460144 1.30495 0.832489 0.934441 0.546906 0.92762 0.1322 0.317373 0.173404
1.4359 1.05913 1.48158 0.621798 1.38227 0.729031 1.21376 1.1807 0.179899 0.292226
0.228785 0.25419 0.421962 0.763958 0.700294 0.359272 0.48732 0.432705 0.265314 0.615176
0.806525 1.11958 1.10807 0.503531 0.442362 0.460868 0.625119 0.708204 1.44882 1.40907
1.30042 1.56093 0.857487 0.746404 1.31835 0.806469 0.647867 0.747456 0.617918 0.904355
0.861761 0.506058 0.526482 0.380636 0.616362 1.60445 1.39465 0.968702 1.43413 0.56879
1.02736 0.572 0.503935 0.390008 0.955355 0.777016 0.646143 0.554134 1.22171 1.22037
0.573426 0.514569 1.25583 0.760499 1.14963 0.646338 0.703386 1.18034 0.539519 0.336485
0.658563 0.388497 0.328767 0.706266 0.397622 0.517254 0.67347 0.331836 0.834974 1.11586
1.08122 0.565769 0.510184 0.563914 0.394208 0.176075 0.506537 0.189948 0.502452 0.779957
1.07522 0.706798 0.878746 0.607913 1.28161 1.39785 1.20595 1.10783 0.83469 0.998684
0.799086 0.726878 0.575728 0.990061 0.569809 0.549121 1.2493 0.985234 1.13775 1.08779
0.844573 1.20186 1.27001 0.467389 1.36898 1.10368 0.941749 1.28453 1.12151 1.14344
1.0209 1.58102 1.29407 0.899369 0.532712 0.955346 0.369066 0.46097 0.343551 0.550488
0.657337 1.08927 0.586661 0.954549 0.880179 0.528377 0.700651 0.712435 0.418206 0.536406
0.862235 0.974734 0.585533 1.11522 1.09281 0.67968 1.11963 1.02186 0.391594 0.269512
0.873498 0.850193 0.334808 0.328441 0.433995 0.319408 0.338212 0.332414 0.520603 0.790522
0.353383 0.381426 0.439997 0.548233 0.351433 0.501826 0.513226 0.306466 0.418085 0.608265
0.652346 0.621387 0.242679 0.693532 0.689481 0.222498 0.222073 0.302948 0.73177 0.68262
0.296405 0.276422 0.365668 0.380004 0.38052 0.589917 0.538253 0.553525 0.297502 0.294541
0.302388 0.593347 0.517987 0.423344 0.673277 0.492317 0.508641 0.746839 0.442551 0.889076
0.51521 1.18236 0.356616 0.459538 0.78782 0.75766 0.829987 1.00718 0.622 0.485124
1.01701 0.202999 0.259874 0.0837077 0.273256 0.174419 0.0788344 0.099485 0.235915 0.305801
1.15333 0.77405 0.771438 1.1934 1.12165 1.11447 1.16298 0.701539 1.00627 1.06078
1.08735 0.677336 0.642007 0.275671 0.686647 0.225659 0.827959 0.883526 1.06437 1.20014