# vtk DataFile Version 2.0
sampleSurface
ASCII
DATASET POLYDATA
POINTS 9738 float
-1324.36 -1350.27 10 -1424.05 -1350.27 10 -1424.05 -1421.34 10 -1324.36 -1421.34
10 -1224.68 -1350.27 10 -1224.68 -1421.34 10 -1125 -1350.27 10
-1125 -1421.34 10 -1025.31 -1350.27 10 -1025.31 -1421.34 10 -925.631
-1350.27 10 -925.631 -1421.34 10 -825.947 -1350.27 10 -825.947 -1421.34
10 -726.264 -1350.27 10 -726.264 -1421.34 10 -626.581 -1350.27 10
-626.581 -1421.34 10 -526.897 -1350.27 10 -526.897 -1421.34 10 -427.214
-1350.27 10 -427.214 -1421.34 10 -327.531 -1350.27 10 -327.531 -1421.34
10 -227.847 -1350.27 10 -227.847 -1421.34 10 -128.164 -1350.27 10
-128.164 -1421.34 10 -28.4808 -1350.27 10 -28.4808 -1421.34 10 71.2025
-1350.27 10 71.2025 -1421.34 10 170.886 -1350.27 10 170.886 -1421.34
10 270.569 -1350.27 10 270.569 -1421.34 10 370.252 -1350.27 10
370.252 -1421.34 10 469.936 -1350.27 10 469.936 -1421.34 10 569.619
-1350.27 10 569.619 -1421.34 10 669.302 -1350.27 10 669.302 -1421.34
10 768.986 -1350.27 10 768.986 -1421.34 10 868.669 -1350.27 10
868.669 -1421.34 10 968.352 -1350.27 10 968.352 -1421.34 10 1068.04
-1350.27 10 1068.04 -1421.34 10 1167.72 -1350.27 10 1167.72 -1421.34
10 1267.4 -1350.27 10 1267.4 -1421.34 10 1367.09 -1350.27 10
1367.09 -1421.34 10 1466.77 -1350.27 10 1466.77 -1421.34 10 1566.45
-1350.27 10 1566.45 -1421.34 10 1666.14 -1350.27 10 1666.14 -1421.34
10 1765.82 -1350.27 10 1765.82 -1421.34 10 1865.5 -1350.27 10
1865.5 -1421.34 10 1965.19 -1350.27 10 1965.19 -1421.34 10 2064.87
-1350.27 10 2064.87 -1421.34 10 2164.55 -1350.27 10 2164.55 -1421.34
10 2264.24 -1350.27 10 2264.24 -1421.34 10 2363.92 -1350.27 10
2363.92 -1421.34 10 2463.6 -1350.27 10 2463.6 -1421.34 10 2563.29
-1350.27 10 2563.29 -1421.34 10 2662.97 -1350.27 10 2662.97 -1421.34
10 2762.65 -1350.27 10 2762.65 -1421.34 10 2862.34 -1350.27 10
2862.34 -1421.34 10 2962.02 -1350.27 10 2962.02 -1421.34 10 3061.7
-1350.27 10 3061.7 -1421.34 10 3161.39 -1350.27 10 3161.39 -1421.34
10 3261.07 -1350.27 10 3261.07 -1421.34 10 3360.75 -1350.27 10
3360.75 -1421.34 10 3460.44 -1350.27 10 3460.44 -1421.34 10 3560.12
-1421.34 10 3560.12 -1350.27 10 -1324.36 -1279.2 10 -1424.05 -1279.2
10 -1224.68 -1279.2 10 -1125 -1279.2 10 -1025.31 -1279.2 10
-925.631 -1279.2 10 -825.947 -1279.2 10 -726.264 -1279.2 10 -626.581
-1279.2 10 -526.897 -1279.2 10 -427.214 -1279.2 10 -327.531 -1279.2
10 -227.847 -1279.2 10 -128.164 -1279.2 10 -28.4808 -1279.2 10
71.2025 -1279.2 10 170.886 -1279.2 10 270.569 -1279.2 10 370.252
-1279.2 10 469.936 -1279.2 10 569.619 -1279.2 10 669.302 -1279.2
10 768.986 -1279.2 10 868.669 -1279.2 10 968.352 -1279.2 10
1068.04 -1279.2 10 1167.72 -1279.2 10 1267.4 -1279.2 10 1367.09
-1279.2 10 1466.77 -1279.2 10 1566.45 -1279.2 10 1666.14 -1279.2
10 1765.82 -1279.2 10 1865.5 -1279.2 10 1965.19 -1279.2 10
2064.87 -1279.2 10 2164.55 -1279.2 10 2264.24 -1279.2 10 2363.92
-1279.2 10 2463.6 -1279.2 10 2563.29 -1279.2 10 2662.97 -1279.2
10 2762.65 -1279.2 10 2862.34 -1279.2 10 2962.02 -1279.2 10
3061.7 -1279.2 10 3161.39 -1279.2 10 3261.07 -1279.2 10 3360.75
-1279.2 10 3460.44 -1279.2 10 3560.12 -1279.2 10 -1324.36 -1208.14
10 -1424.05 -1208.14 10 -1224.68 -1208.14 10 -1125 -1208.14 10
-1025.31 -1208.14 10 -925.631 -1208.14 10 -825.947 -1208.14 10 -726.264
-1208.14 10 -626.581 -1208.14 10 -526.897 -1208.14 10 -427.214 -1208.14
10 -327.531 -1208.14 10 -227.847 -1208.14 10 -128.164 -1208.14 10
-28.4809 -1208.14 10 71.2024 -1208.14 10 170.886 -1208.14 10 270.569
-1208.14 10 370.252 -1208.14 10 469.936 -1208.14 10 569.619 -1208.14
10 669.302 -1208.14 10 768.985 -1208.14 10 868.669 -1208.14 10
968.352 -1208.14 10 1068.04 -1208.14 10 1167.72 -1208.14 10 1267.4
-1208.14 10 1367.09 -1208.14 10 1466.77 -1208.14 10 1566.45 -1208.14
10 1666.14 -1208.14 10 1765.82 -1208.14 10 1865.5 -1208.14 10
1965.19 -1208.14 10 2064.87 -1208.14 10 2164.55 -1208.14 10 2264.24
-1208.14 10 2363.92 -1208.14 10 2463.6 -1208.14 10 2563.29 -1208.14
10 2662.97 -1208.14 10 2762.65 -1208.14 10 2862.34 -1208.14 10
2962.02 -1208.14 10 3061.7 -1208.14 10 3161.39 -1208.14 10 3261.07
-1208.14 10 3360.75 -1208.14 10 3460.44 -1208.14 10 3560.12 -1208.14
10 -1324.36 -1137.07 10 -1424.05 -1137.07 10 -1224.68 -1137.07 10
-1125 -1137.07 10 -1025.31 -1137.07 10 -925.631 -1137.07 10 -825.947
-1137.07 10 -726.264 -1137.07 10 -626.581 -1137.07 10 -526.897 -1137.07
10 -427.214 -1137.07 10 -327.531 -1137.07 10 -227.847 -1137.07 10
-128.164 -1137.07 10 -28.4809 -1137.07 10 71.2023 -1137.07 10 170.886
-1137.07 10 270.569 -1137.07 10 370.252 -1137.07 10 469.936 -1137.07
10 569.619 -1137.07 10 669.302 -1137.07 10 768.985 -1137.07 10
868.669 -1137.07 10 968.352 -1137.07 10 1068.04 -1137.07 10 1167.72
-1137.07 10 1267.4 -1137.07 10 1367.09 -1137.07 10 1466.77 -1137.07
10 1566.45 -1137.07 10 1666.14 -1137.07 10 1765.82 -1137.07 10
1865.5 -1137.07 10 1965.19 -1137.07 10 2064.87 -1137.07 10 2164.55
-1137.07 10 2264.24 -1137.07 10 2363.92 -1137.07 10 2463.6 -1137.07
10 2563.29 -1137.07 10 2662.97 -1137.07 10 2762.65 -1137.07 10
2862.34 -1137.07 10 2962.02 -1137.07 10 3061.7 -1137.07 10 3161.39
-1137.07 10 3261.07 -1137.07 10 3360.75 -1137.07 10 3460.44 -1137.07
10 3560.12 -1137.07 10 -1324.36 -1066 10 -1424.05 -1066 10
-1224.68 -1066 10 -1125 -1066 10 -1025.31 -1066 10 -925.631
-1066 10 -825.947 -1066 10 -726.264 -1066 10 -626.581 -1066
10 -526.897 -1066 10 -427.214 -1066 10 -327.531 -1066 10
-227.847 -1066 10 -128.164 -1066 10 -28.481 -1066 10 71.2022
-1066 10 170.885 -1066 10 270.569 -1066 10 370.252 -1066
10 469.935 -1066 10 569.619 -1066 10 669.302 -1066 10
768.985 -1066 10 868.669 -1066 10 968.352 -1066 10 1068.04
-1066 10 1167.72 -1066 10 1267.4 -1066 10 1367.08 -1066
10 1466.77 -1066 10 1566.45 -1066 10 1666.13 -1066 10
1765.82 -1066 10 1865.5 -1066 10 1965.19 -1066 10 2064.87
-1066 10 2164.55 -1066 10 2264.24 -1066 10 2363.92 -1066
10 2463.6 -1066 10 2563.29 -1066 10 2662.97 -1066 10
2762.65 -1066 10 2862.34 -1066 10 2962.02 -1066 10 3061.7
-1066 10 3161.39 -1066 10 3261.07 -1066 10 3360.75 -1066
10 3460.44 -1066 10 3560.12 -1066 10 -1324.36 -994.936 10
-1424.05 -994.936 10 -1224.68 -994.936 10 -1125 -994.936 10 -1025.31
-994.936 10 -925.631 -994.936 10 -825.947 -994.936 10 -726.264 -994.936
10 -626.581 -994.936 10 -526.897 -994.935 10 -427.214 -994.935 10
-327.531 -994.935 10 -227.848 -994.934 10 -128.164 -994.934 10 -28.4812
-994.934 10 71.202 -994.934 10 170.885 -994.934 10 270.569 -994.935
10 370.252 -994.935 10 469.935 -994.935 10 569.619 -994.936 10
669.302 -994.936 10 768.985 -994.936 10 868.669 -994.936 10 968.352
-994.936 10 1068.04 -994.936 10 1167.72 -994.936 10 1267.4 -994.936
10 1367.08 -994.936 10 1466.77 -994.936 10 1566.45 -994.936 10
1666.13 -994.936 10 1765.82 -994.936 10 1865.5 -994.936 10 1965.18
-994.936 10 2064.87 -994.936 10 2164.55 -994.936 10 2264.24 -994.936
10 2363.92 -994.936 10 2463.6 -994.936 10 2563.29 -994.936 10
2662.97 -994.936 10 2762.65 -994.936 10 2862.34 -994.936 10 2962.02
-994.936 10 3061.7 -994.936 10 3161.39 -994.936 10 3261.07 -994.936
10 3360.75 -994.936 10 3460.44 -994.936 10 3560.12 -994.936 10
-1324.36 -923.869 10 -1424.05 -923.869 10 -1224.68 -923.869 10 -1125
-923.869 10 -1025.31 -923.869 10 -925.631 -923.869 10 -825.947 -923.869
10 -875.789 -923.869 10 -726.264 -923.869 10 -776.106 -923.869 10
-626.581 -923.869 10 -676.422 -923.869 10 -526.897 -923.869 10 -576.739
-923.869 10 -427.214 -923.868 10 -477.056 -923.868 10 -327.531 -923.867
10 -377.372 -923.868 10 -227.848 -923.867 10 -277.689 -923.867 10
-128.164 -923.866 10 -178.006 -923.866 10 -28.4814 -923.866 10 -78.323
-923.866 10 71.2018 -923.866 10 21.3601 -923.866 10 170.885 -923.867
10 121.043 -923.867 10 270.568 -923.867 10 220.727 -923.867 10
370.252 -923.868 10 320.41 -923.868 10 469.935 -923.869 10 420.094
-923.868 10 569.619 -923.869 10 519.777 -923.869 10 669.302 -923.869
10 619.46 -923.869 10 768.985 -923.869 10 719.144 -923.869 10
868.669 -923.869 10 818.827 -923.869 10 968.352 -923.869 10 1068.04
-923.869 10 1167.72 -923.869 10 1267.4 -923.869 10 1367.08 -923.869
10 1466.77 -923.869 10 1566.45 -923.869 10 1666.13 -923.869 10
1765.82 -923.869 10 1865.5 -923.869 10 1965.18 -923.869 10 2064.87
-923.869 10 2164.55 -923.869 10 2264.23 -923.869 10 2363.92 -923.869
10 2463.6 -923.869 10 2563.29 -923.869 10 2662.97 -923.869 10
2762.65 -923.869 10 2862.34 -923.869 10 2962.02 -923.869 10 3061.7
-923.869 10 3161.39 -923.869 10 3261.07 -923.869 10 3360.75 -923.869
10 3460.44 -923.869 10 3560.12 -923.869 10 -1324.36 -852.802 10
-1424.05 -852.802 10 -1224.68 -852.802 10 -1125 -852.802 10 -1025.31
-852.802 10 -925.631 -888.336 10 -925.631 -852.802 10 -875.789 -888.336
10 -776.106 -888.336 10 -825.947 -888.336 10 -676.422 -888.336 10
-726.264 -888.336 10 -576.739 -888.336 10 -626.581 -888.336 10 -477.056
-888.335 10 -526.897 -888.336 10 -377.372 -888.335 10 -427.214 -888.335
10 -277.689 -888.335 10 -327.531 -888.335 10 -178.006 -888.335 10
-227.848 -888.335 10 -78.3227 -888.335 10 -128.164 -888.335 10 21.3605
-888.335 10 -28.4811 -888.335 10 121.044 -888.335 10 71.2021 -888.335
10 220.727 -888.335 10 170.885 -888.335 10 320.41 -888.335 10
270.569 -888.335 10 420.094 -888.335 10 370.252 -888.335 10 519.777
-888.336 10 469.935 -888.336 10 619.461 -888.336 10 569.619 -888.336
10 719.144 -888.336 10 669.302 -888.336 10 818.827 -888.336 10
768.986 -888.336 10 968.352 -852.802 10 918.511 -852.802 10 868.669
-852.802 10 868.669 -888.336 10 1068.03 -852.802 10 1167.72 -852.802
10 1267.4 -852.802 10 1367.08 -852.802 10 1466.77 -852.802 10
1566.45 -852.802 10 1666.13 -852.802 10 1765.82 -852.802 10 1865.5
-852.802 10 1965.18 -852.802 10 2064.87 -852.802 10 2164.55 -852.802
10 2264.23 -852.802 10 2363.92 -852.802 10 2463.6 -852.802 10
2563.29 -852.802 10 2662.97 -852.802 10 2762.65 -852.802 10 2862.34
-852.802 10 2962.02 -852.802 10 3061.7 -852.802 10 3161.39 -852.802
10 3261.07 -852.802 10 3360.75 -852.802 10 3460.44 -852.802 10
3560.12 -852.802 10 -1324.36 -781.735 10 -1424.05 -781.735 10 -1224.68
[...]
CELL_DATA 9156
FIELD attributes 2
k 1 9156 float
2.35385 1.8396 1.71711 1.66231 1.62057 1.58335 1.55119 1.52346 1.49878 1.47655 1.45649
1.4384 1.42199 1.40702 1.39327 1.38052 1.3686 1.35736 1.3467 1.33658 1.32698
1.31794 1.30948 1.30166 1.2945 1.28798 1.28204 1.27657 1.27146 1.26661 1.26194
1.25741 1.25299 1.24867 1.24446 1.24033 1.2363 1.23236 1.22851 1.22475 1.22108
1.2175 1.21401 1.21061 1.20729 1.20406 1.20095 1.19772 1.19527 1.19048 2.35384
1.8396 1.71711 1.66232 1.6206 1.58339 1.55124 1.52348 1.49874 1.47646 1.45638
1.43828 1.42189 1.40696 1.39323 1.38051 1.36861 1.35736 1.3467 1.33655 1.32692
1.31784 1.30936 1.30151 1.29435 1.28785 1.28194 1.27652 1.27145 1.26662 1.26197
1.25744 1.25301 1.24869 1.24447 1.24033 1.23629 1.23235 1.22849 1.22473 1.22105
1.21747 1.21398 1.21057 1.20725 1.20402 1.2009 1.19767 1.19522 1.19042 2.35384
1.8396 1.71711 1.66234 1.62065 1.5835 1.55136 1.52353 1.49866 1.47627 1.45614
1.43804 1.42168 1.40681 1.39316 1.3805 1.36864 1.35741 1.34672 1.33653 1.32682
1.31766 1.30909 1.30119 1.29401 1.28754 1.2817 1.27636 1.27136 1.26659 1.26195
1.25744 1.25303 1.24871 1.24448 1.24035 1.23631 1.23236 1.2285 1.22474 1.22107
1.21749 1.21399 1.21059 1.20727 1.20403 1.20092 1.19768 1.19523 1.19043 2.35384
1.8396 1.71713 1.66238 1.62074 1.58368 1.55157 1.52362 1.49856 1.47602 1.45582
1.43773 1.42142 1.40664 1.39309 1.38052 1.36871 1.35749 1.34677 1.3365 1.32669
1.31741 1.30873 1.30075 1.29356 1.28717 1.28146 1.27625 1.27137 1.26665 1.26204
1.25752 1.25309 1.24875 1.2445 1.24035 1.23628 1.23231 1.22844 1.22466 1.22097
1.21738 1.21388 1.21046 1.20714 1.20389 1.20077 1.19753 1.19508 1.19028 2.35384
1.8396 1.71714 1.66243 1.62088 1.58401 1.552 1.52385 1.49844 1.47564 1.45536
1.43729 1.42112 1.4065 1.39313 1.38071 1.36899 1.35778 1.34698 1.33657 1.32658
1.31709 1.30821 1.3001 1.29285 1.28651 1.28095 1.27595 1.27124 1.26664 1.26208
1.25759 1.25318 1.24884 1.24459 1.24043 1.23637 1.2324 1.22852 1.22474 1.22105
1.21745 1.21395 1.21053 1.2072 1.20396 1.20084 1.1976 1.19514 1.19033 2.35384
1.83961 1.71716 1.66249 1.62099 1.5844 1.55271 1.52441 1.49865 1.47561 1.45526
1.43725 1.4212 1.40678 1.39362 1.38137 1.36974 1.35854 1.34765 1.33706 1.32686
1.31708 1.30792 1.29961 1.29244 1.28629 1.28092 1.27612 1.27156 1.26702 1.26247
1.25796 1.25352 1.24916 1.24488 1.2407 1.23661 1.23262 1.22873 1.22493 1.22124
1.21763 1.21412 1.2107 1.20737 1.20412 1.20099 1.19775 1.19529 1.19047 2.35384
1.83961 1.71718 1.66255 1.62123 1.58507 1.55428 1.52545 1.49889 1.47541 1.45508
1.43737 1.4218 1.40796 1.39539 1.38363 1.37227 1.36106 1.34995 1.339 1.32835
1.31811 1.30849 1.29967 1.29263 1.28696 1.28225 1.27805 1.2738 1.26929 1.26466
1.26003 1.25545 1.25095 1.24653 1.24222 1.23801 1.23391 1.22991 1.22602 1.22223
1.21855 1.21496 1.21147 1.20807 1.20477 1.20159 1.1983 1.1958 1.19091 2.35384
1.83964 1.71729 1.66146 1.64221 1.6253 1.57618 1.53583 1.50337 1.47723 1.45578
1.43762 1.42206 1.40839 1.39586 1.38364 1.37127 1.35863 1.34578 1.333 1.32061
1.30883 1.29794 1.2344 1.30452 1.31827 1.31738 1.31255 1.30491 1.29714 1.28966
1.28266 1.27611 1.26994 1.26411 1.25857 1.25329 1.24825 1.24342 1.23879 1.23433
1.23005 1.22591 1.22193 1.21808 1.21434 1.21079 1.20711 1.20433 1.19894 2.35384
1.83965 1.71729 1.66163 1.642 1.63817 1.21069 1.34385 1.37647 1.37271 1.36107
1.34698 1.33396 1.3223 1.31186 1.30246 1.2939 1.28602 1.27871 1.27191 1.26552
1.25951 1.25383 1.24845 1.24333 1.23844 1.23377 1.2293 1.22501 1.22094 1.21677
1.21363 1.20759 2.35384 1.83966 1.71731 1.66168 1.64231 1.63812 1.21984 1.34922
1.38183 1.37762 1.36525 1.35056 1.33705 1.32495 1.31415 1.30443 1.29558 1.28745
1.27992 1.27291 1.26634 1.26016 1.25433 1.2488 1.24355 1.23855 1.23377 1.2292
1.22481 1.22067 1.21641 1.2132 1.20706 2.35385 1.83966 1.71733 1.66172 1.64248
1.63851 1.21683 1.34706 1.37968 1.37568 1.36367 1.34929 1.336 1.32403 1.31331
1.30364 1.29481 1.28668 1.27915 1.27213 1.26556 1.25937 1.25354 1.24801 1.24276
1.23776 1.23299 1.22843 1.22405 1.21991 1.21566 1.21246 1.20634 2.35385 1.83967
1.71734 1.66174 1.6425 1.63864 1.21424 1.34531 1.37804 1.37428 1.36264 1.34849
1.33533 1.32345 1.31278 1.30313 1.29431 1.28617 1.27862 1.27158 1.26497 1.25876
1.25289 1.24732 1.24203 1.23699 1.23219 1.22759 1.22318 1.21901 1.21473 1.21152
1.20535 2.35385 1.83967 1.71734 1.66174 1.64241 1.63857 1.21058 1.34241 1.37532
1.37176 1.36046 1.34659 1.33365 1.32195 1.3114 1.30185 1.2931 1.28501 1.27751
1.27051 1.26394 1.25775 1.25191 1.24637 1.24111 1.2361 1.23132 1.22675 1.22236
1.21821 1.21396 1.21075 1.20461 2.35385 1.83968 1.71733 1.6617 1.64222 1.63834
1.20492 1.33608 1.3686 1.36512 1.35404 1.34043 1.32773 1.3162 1.30576 1.29629
1.28758 1.27952 1.27203 1.26502 1.25845 1.25225 1.24641 1.24087 1.23562 1.23062
1.22585 1.2213 1.21694 1.21283 1.2086 1.20543 1.19937 2.35386 1.83968 1.71731
1.66165 1.64198 1.63803 1.19496 1.34506 1.37803 1.37482 1.36413 1.35082 1.33832
1.32693 1.31658 1.30716 1.29846 1.29039 1.28287 1.27582 1.26919 1.26293 1.257
1.25138 1.24603 1.24093 1.23606 1.2314 1.22692 1.22268 1.21833 1.21506 1.20879
2.35386 1.83968 1.71728 1.6616 1.64169 1.63766 1.23836 1.35368 1.38598 1.38215
1.37064 1.35688 1.34391 1.33205 1.32121 1.31128 1.3021 1.29357 1.28561 1.27816
1.27116 1.26458 1.25836 1.25248 1.24691 1.24161 1.23657 1.23176 1.22716 1.22282
1.21838 1.21504 1.20867 2.35386 1.83968 1.71725 1.66154 1.6414 1.63728 1.1974
1.30699 1.34352 1.34331 1.33736 1.32791 1.3188 1.31039 1.30262 1.2954 1.28862
1.28222 1.27616 1.27042 1.26496 1.25976 1.2548 1.25006 1.24552 1.24118 1.23701
1.233 1.22913 1.22545 1.22168 1.21881 1.21328 2.35386 1.83967 1.71723 1.66147
1.64114 1.63694 1.28189 1.43547 1.47668 1.47864 1.47288 1.46206 1.45081 1.43972
1.42907 1.41892 1.40915 1.39979 1.39081 1.3822 1.37392 1.36598 1.35833 1.35098
1.34391 1.33708 1.3305 1.32415 1.31799 1.31214 1.30609 1.30156 1.29262 2.35386
1.83967 1.71721 1.66141 1.64093 1.63668 1.24853 1.25032 1.29017 1.2874 1.27645
1.26188 1.24809 1.23569 1.22476 1.21518 1.20663 1.199 1.19217 1.186 1.18042
1.17534 1.17068 1.16641 1.16246 1.15881 1.1554 1.15222 1.14924 1.14646 1.14369
1.14162 1.13772 2.35386 1.83966 1.7172 1.66138 1.64081 1.63652 0.508977 0.954137
1.01817 1.04256 1.05639 1.06548 1.07164 1.07624 1.07997 1.08307 1.08567 1.08785
1.08969 1.09123 1.09251 1.09357 1.09443 1.09511 1.09564 1.09602 1.09628 1.09642
1.09646 1.09641 1.09629 1.0961 1.09559 2.35386 1.83966 1.71719 1.66136 1.64078
1.63648 1.38444 1.33188 1.37352 1.36809 1.35277 1.33487 1.31816 1.30312 1.28971
1.27774 1.26689 1.25698 1.24789 1.2395 1.23172 1.22446 1.21767 1.21128 1.20525
1.19955 1.19414 1.18899 1.18407 1.17945 1.17472 1.17125 1.16449 2.35385 1.83965
1.71719 1.66137 1.64085 1.63657 0.509965 0.688649 0.82188 0.872976 0.892036 0.902992
0.909679 0.914262 0.917714 0.920476 0.922812 0.92488 0.92681 0.928655 0.930454 0.932246
0.934016 0.935775 0.937522 0.939253 0.940969 0.942656 0.944342 0.945941 0.947668 0.948973
0.951353 2.35385 1.83965 1.71719 1.66141 1.64102 1.63679 1.17296 1.47697 1.50868
1.49653 1.47161 1.44744 1.42559 1.40642 1.38973 1.37509 1.36212 1.35053 1.34005
1.33052 1.32178 1.31371 1.30621 1.29921 1.29264 1.28645 1.28058 1.27501 1.26969
1.26466 1.25957 1.25575 1.24827 2.35384 1.83965 1.71721 1.66146 1.64126 1.6371
1.42338 1.42067 1.46868 1.48083 1.48261 1.48109 1.47749 1.47302 1.4682 1.46309
1.45769 1.45207 1.4463 1.44041 1.43445 1.42845 1.42246 1.41649 1.41056 1.40469
1.39888 1.39314 1.38748 1.38197 1.37624 1.37183 1.36301 2.35384 1.83965 1.71724
1.66152 1.64153 1.63747 1.20535 1.33113 1.36106 1.35655 1.34494 1.33212 1.32039
1.30988 1.30055 1.29221 1.28464 1.2777 1.27131 1.26538 1.25987 1.25471 1.24988
1.24533 1.24104 1.23698 1.23313 1.22946 1.22597 1.22268 1.21935 1.21681 1.21198
2.35384 1.83965 1.71726 1.66159 1.64182 1.63784 1.20244 1.32864 1.36136 1.35822
1.34778 1.33479 1.32257 1.31138 1.30118 1.29185 1.28323 1.27522 1.26776 1.26079
1.25423 1.24807 1.24224 1.23672 1.23149 1.22651 1.22177 1.21724 1.2129 1.20881
1.20462 1.20148 1.19548 2.35384 1.83965 1.71729 1.66164 1.64209 1.6382 1.21629
1.3397 1.37199 1.36825 1.35682 1.34302 1.33018 1.31854 1.30803 1.2985 1.28976
1.28167 1.27414 1.26711 1.26051 1.25428 1.2484 1.24283 1.23753 1.23249 1.22768
1.22308 1.21867 1.2145 1.21023 1.20702 1.20088 2.35384 1.83965 1.7173 1.66169
1.6423 1.63846 1.21834 1.34217 1.37468 1.37097 1.35951 1.34561 1.33267 1.32097
1.31042 1.30087 1.29211 1.28401 1.27649 1.26947 1.26288 1.25667 1.25081 1.24526
1.23999 1.23498 1.2302 1.22562 1.22124 1.2171 1.21285 1.20965 1.20354 2.35383
1.83965 1.71731 1.6617 1.64242 1.63859 1.22081 1.34546 1.37802 1.37415 1.36236
1.34812 1.33492 1.32302 1.31234 1.30269 1.29388 1.28577 1.27825 1.27123 1.26466
1.25847 1.25263 1.24709 1.24184 1.23683 1.23205 1.22748 1.22309 1.21894 1.21468
1.21148 1.20534 2.35383 1.83965 1.71731 1.66169 1.64243 1.63852 1.22142 1.34719
1.37959 1.37548 1.36333 1.34889 1.33555 1.32357 1.31284 1.30316 1.29434 1.2862
1.27867 1.27166 1.26508 1.25889 1.25305 1.24752 1.24227 1.23727 1.2325 1.22794
1.22356 1.21943 1.21519 1.212 1.20589 2.35383 1.83964 1.7173 1.66165 1.64227
1.63814 1.22276 1.34944 1.38189 1.37759 1.36511 1.35035 1.33679 1.32466 1.31385
1.30412 1.29527 1.28714 1.27962 1.27261 1.26606 1.25989 1.25408 1.24857 1.24333
1.23835 1.23359 1.22904 1.22467 1.22054 1.21631 1.21312 1.20701 2.35384 1.83964
1.71728 1.66161 1.64198 1.63761 1.22053 1.34392 1.37637 1.37253 1.3608 1.34666
1.33361 1.32192 1.31147 1.30207 1.2935 1.28562 1.27833 1.27152 1.26515 1.25915
1.25347 1.24809 1.24298 1.2381 1.23344 1.22898 1.22469 1.22064 1.21647 1.21334
1.20732 2.35384 1.83963 1.71728 1.66145 1.64221 1.63221 1.51042 1.43915 1.40746
1.38621 1.36941 1.3556 1.34433 1.33521 1.3276 1.32031 1.31243 1.30355 1.29366
1.28304 1.27209 1.26137 1.2506 1.23463 1.30442 1.318 1.31704 1.31212 1.30444
1.29664 1.28915 1.28213 1.27558 1.26941 1.26359 1.25806 1.25279 1.24776 1.24295
1.23833 1.23389 1.22963 1.22551 1.22154 1.21771 1.214 1.21046 1.2068 1.20404
1.19868 2.35383 1.83961 1.71717 1.66255 1.62123 1.58507 1.55429 1.52548 1.49896
1.47555 1.45532 1.43775 1.42238 1.40876 1.39642 1.38481 1.37348 1.3622 1.35095
1.33985 1.32903 1.31864 1.3089 1.29997 1.29279 1.28702 1.28221 1.27792 1.2736
1.26905 1.26439 1.25973 1.25514 1.25062 1.2462 1.24189 1.23768 1.23358 1.22959
1.22571 1.22193 1.21825 1.21467 1.21119 1.20781 1.20451 1.20135 1.19806 1.19557
1.19071 2.35383 1.8396 1.71716 1.66249 1.621 1.58442 1.55274 1.52448 1.49875
1.47578 1.45552 1.43762 1.42172 1.40746 1.39446 1.38233 1.37076 1.35953 1.34857
1.33789 1.32757 1.31769 1.30843 1.30002 1.29276 1.28652 1.28108 1.27621 1.27159
1.26699 1.26241 1.25787 1.25341 1.24903 1.24474 1.24055 1.23646 1.23248 1.22859
1.2248 1.2211 1.21751 1.214 1.21059 1.20727 1.20403 1.20092 1.19768 1.19523
1.19043 2.35383 1.8396 1.71714 1.66243 1.62089 1.58404 1.55205 1.52394 1.49857
1.47584 1.45565 1.43769 1.42164 1.40716 1.39392 1.3816 1.36993 1.35871 1.34786
1.33736 1.32728 1.31769 1.30871 1.30051 1.29317 1.28674 1.2811 1.27604 1.27127
1.26662 1.26203 1.2575 1.25306 1.24871 1.24445 1.24028 1.23621 1.23224 1.22836
1.22458 1.2209 1.21731 1.21381 1.2104 1.20708 1.20384 1.20073 1.1975 1.19506
1.19026 2.35383 1.8396 1.71712 1.66239 1.62076 1.58372 1.55163 1.52373 1.49872
1.47624 1.45613 1.43813 1.42194 1.40727 1.39383 1.38135 1.36958 1.35836 1.3476
1.33726 1.32738 1.31801 1.30924 1.30117 1.2939 1.28742 1.28164 1.27636 1.27142
1.26665 1.26199 1.25744 1.25299 1.24863 1.24436 1.2402 1.23613 1.23216 1.22828
1.22451 1.22082 1.21724 1.21374 1.21034 1.20702 1.20378 1.20068 1.19745 1.19501
1.19022 2.35383 1.8396 1.71711 1.66235 1.62067 1.58354 1.55143 1.52364 1.49883
1.4765 1.45645 1.43845 1.42219 1.40742 1.39387 1.38129 1.36946 1.35824 1.34752
1.33726 1.32749 1.31824 1.30959 1.30161 1.29434 1.2878 1.28188 1.27647 1.27142
1.26659 1.26192 1.25737 1.25293 1.24859 1.24435 1.24021 1.23616 1.23221 1.22835
1.22459 1.22092 1.21734 1.21385 1.21046 1.20715 1.20392 1.20081 1.19759 1.19515
1.19037 2.35383 1.8396 1.71711 1.66232 1.62062 1.58344 1.55132 1.5236 1.49892
1.4767 1.4567 1.43869 1.4224 1.40756 1.39392 1.38127 1.3694 1.35816 1.34747
1.33727 1.32758 1.31842 1.30985 1.30193 1.29468 1.28811 1.28213 1.27664 1.27151
1.26664 1.26193 1.25737 1.25292 1.24858 1.24434 1.24019 1.23614 1.23219 1.22834
1.22457 1.2209 1.21733 1.21384 1.21044 1.20713 1.2039 1.2008 1.19758 1.19514
1.19036 2.35385 1.8396 1.71711 1.66232 1.62059 1.5834 1.55128 1.52359 1.49896
1.47679 1.45682 1.43881 1.42249 1.40762 1.39395 1.38127 1.36938 1.35814 1.34746
1.33729 1.32763 1.31851 1.30998 1.30208 1.29483 1.28824 1.28222 1.27669 1.27153
1.26662 1.26191 1.25734 1.2529 1.24856 1.24433 1.24019 1.23615 1.2322 1.22835
1.22459 1.22093 1.21736 1.21387 1.21048 1.20717 1.20395 1.20085 1.19763 1.19519
1.19041 1.33011 0.423413 1.24733 1.1044 1.31526 1.08245 1.1645 1.19415 1.56442
1.02567 1.0013 1.007 1.01612 1.1008 0.340254 0.595567 0.298351 1.07567 0.87031
0.764733 0.970771 0.51362 0.352707 0.645527 0.588929 1.27582 1.08972 1.3423 1.76202
0.877828 1.42353 0.398628 1.07427 1.05747 1.03095 0.25098 0.926739 0.498974 0.14188
0.383805 0.181837 0.593818 0.487583 0.652309 0.520807 0.70654 0.682312 0.604007 1.30398
1.19559 1.8812 1.59604 1.77686 1.00705 1.18858 1.21768 0.973537 1.85427 1.34079
1.40267 1.64065 0.782401 0.35067 1.10487 0.186599 1.19655 1.15079 1.66523 1.82561
1.52676 1.37025 1.24894 1.79384 0.857205 1.97828 0.622206 1.01361 1.19497 0.761891
0.858062 1.23399 0.929324 1.24504 1.06905 1.59441 1.33493 1.17913 1.288 1.01225
1.00891 1.12001 1.29025 1.31688 1.08477 1.01359 1.02188 0.711525 0.315852 0.219701
0.349835 0.383184 0.520207 0.604788 1.38539 0.344968 0.477071 0.958786 0.936487 1.15053
0.987116 1.42735 1.04509 1.09811 1.66398 1.03045 0.755534 0.215998 0.680398 1.08511
1.68138 0.729182 0.147295 0.272921 1.45497 1.01334 0.386994 0.935843 0.853673 0.753739
0.181319 0.465049 0.401817 0.984618 0.349227 1.07749 0.964808 1.50073 1.26392 1.05584
0.994525 0.518079 1.05146 0.540157 0.263803 0.813655 0.673906 0.567873 0.314868 1.01449
0.728289 1.04154 0.773157 0.792763 0.32975 1.11074 1.14943 0.93027 1.24315 1.69981
0.883571 0.719915 1.38515 0.251691 0.637712 1.11366 0.729489 0.922927 0.853361 1.00176
0.587657 0.813286 0.260558 0.497064 0.67836 1.10671 1.30452 1.04786 1.1706 1.33251
1.26742 1.33033 1.08384 1.49325 1.5961 1.43832 1.80286 1.52117 1.59156 1.83104
1.09395 1.12862 1.1493 1.68734 1.43814 1.16194 1.15634 1.12661 1.1942 1.29457
1.07848 1.04026 0.999118 1.54145 1.28293 1.1903 1.56138 1.1833 1.49675 1.36901
1.1556 2.55352 1.88226 1.59677 2.00312 0.448343 0.977426 1.09134 1.18062 1.13791
1.26446 1.199 1.12089 1.19654 1.36988 0.843149 0.995795 1.12021 1.2376 1.68107
1.53582 1.50527 1.4209 1.31198 1.46679 1.23342 1.09764 1.13844 1.13077 0.913207
1.38218 2.13989 1.73135 1.75056 1.6546 1.52823 1.18585 1.06721 1.04671 1.09086
1.2054 1.30537 1.31797 1.11354 1.07817 0.965148 1.19212 1.02325 1.15288 1.24018
1.16629 1.50909 1.19306 1.22117 1.41691 1.31274 0.855674 0.749329 1.1163 1.12587
0.961218 0.909246 0.846868 0.716116 1.04747 1.03904 0.90387 1.49337 1.18645 1.68763
1.23965 1.11352 1.34513 0.983811 1.06968 0.983335 1.06925 1.00132 0.662898 0.713299
0.901157 0.892403 1.10422 0.944948 1.12764 1.03788 1.02323 0.990289 1.10546 0.823045
1.00163 0.831226 1.0164 1.21755 1.16561 1.22114 1.14121 0.708085 0.589283 0.860018
0.51402 1.47862 1.94833 1.41535 1.20251 0.790883 1.0868 0.825588 1.06372 1.22948
1.26391 1.15591 0.618268 0.457762 0.335028 0.691174 0.352778 0.459321 0.454661 0.570734
1.14566 1.28235 1.16917 0.509611 0.545944 0.520965 0.595684 0.984564 1.41657 1.32102
0.720776 0.491395 0.461153 0.740958 1.18659 1.15601 1.16345 1.15447 1.7261 1.29133
1.20886 1.41039 1.55772 1.1898 1.3506 1.33471 1.23573 1.01825 1.19659 1.29036
1.10242 1.1026 1.03486 1.27115 1.09484 0.993115 0.916484 0.978735 1.0722 0.912155
1.04066 0.923739 0.891772 1.20218 1.18804 1.20695 1.05497 1.10292 0.949964 1.12429
1.14735 0.980909 0.93247 1.04253 1.00285 1.06774 1.33775 1.14074 1.00297 1.26285
1.08865 1.0309 1.07931 2.13192 1.53133 1.44753 1.9033 1.2316 1.23924 1.1585
1.16494 1.15785 1.16372 1.15467 1.16664 1.38699 1.35478 1.27844 1.15545 1.139
1.37847 1.0362 1.27535 1.48045 0.924024 1.47615 1.54293 1.74732 1.34987 1.0247
0.936653 0.932903 1.20259 0.914863 1.19161 1.40261 0.945097 0.986995 1.2505 1.33981
1.1944 1.28629 1.25646 1.21452 1.18604 1.37349 1.18523 1.1728 0.82663 0.565614
0.796889 0.567897 0.689369 0.646241 0.206823 0.306466 0.17214 1.2975 1.25943 1.23471
1.2972 0.509812 0.357892 0.636037 0.622585 0.626013 1.27751 1.27393 1.28801 1.27658
1.12927 1.24929 0.886521 1.21138 1.08172 1.35049 1.36353 1.08236 0.267119 0.234407
0.232875 0.299433 0.318952 0.371586 0.340587 0.370997 1.05615 1.25976 1.71045 1.62477
1.41639 0.442363 0.538837 0.390524 0.514996 0.501134 0.236227 0.175536 0.140343 0.72482
0.764775 0.919266 0.796305 0.81056 0.280171 0.128548 0.260922 0.144158 0.234885 0.131955
0.30854 0.306922 0.572573 0.245513 0.133103 0.123419 0.539892 0.330797 0.330797 0.462286
0.173193 0.398672 0.584855 0.369051 0.535492 0.499795 0.391959 0.430007 0.307912 0.383976
0.516434 0.502746 0.44833 0.170236 0.460017 1.28432 1.21825 1.09748 1.25725 1.15045
1.11666 1.66292 1.74561 1.61413 2.00114 1.59594 1.77903 1.77703 1.43707 1.38051
1.18484 1.40032 1.22203 1.36465 1.63702 1.47374 1.19965 1.07087 0.886892 0.758009
0.967075 0.753788 0.956555 1.25109 1.03473 0.439342 0.815415 0.619611 0.575392 1.05469
0.410921 0.247597 0.362572 0.926806 0.964626 0.249673 0.91385 1.13599 0.746016 0.906654
1.26179 0.946788 0.870832 0.267892 1.40452 0.830857 0.870796 1.02669 0.955129 0.941201
0.841327 0.739632 1.84725 1.33542 1.83071 1.38292 1.37074 1.85352 1.77996 0.972752
0.546001 0.271367 1.58427 1.37072 2.85185 2.61384 0.670771 0.792713 0.483567 0.874849
0.759155 0.76912 0.666435 0.876761 0.586714 0.669306 0.69273 0.596087 0.682277 0.660533
1.05497 1.1706 0.750551 0.688143 0.940872 0.734786 0.659803 0.779157 0.651238 0.660386
0.68977 0.744533 0.517649 0.647647 0.987448 1.36727 1.0042 0.583764 0.916574 0.919098
0.541271 1.01945 0.902537 0.843252 0.930876 0.806727 0.548506 0.444479 0.695798 0.750979
0.744058 0.443021 0.4486 0.35584 0.449864 0.444955 0.348165 0.53643 0.723509 0.601647
0.615361 0.301847 0.31249 0.475105 0.390277 0.427562 0.155775 0.189167 0.363873 0.291559
0.35128 0.285339 0.290882 0.357651 0.339976 0.168822 0.295842 0.367611 0.54789 0.54789
0.5365 0.302758 0.259318 0.444841 0.606957 0.213668 0.2712 0.579056 0.0606348 0.238837
0.281842 0.0914375 1.01677 1.0301 1.47865 1.39674 1.36545 1.36181 1.37079 1.05343
0.979169 0.285643 0.249747 0.445489 1.06885 0.812526 0.635171 1.47878 1.22948 1.27723
0.873706 1.27327 0.950415 0.559756 1.0697 0.472109 1.04886 0.32639 0.128772 0.911178
0.9209 0.512514 0.381487 0.399288 0.631971 0.654876 0.871086 0.837212 0.404807 0.618289
1.13579 0.821454 0.783959 0.696324 1.0455 0.6297 0.993624 1.00497 0.744937 1.08811
0.143232 0.356841 0.357304 0.105701 0.198302 0.293275 0.254663 0.0664061 0.0954226 0.0954226
0.466043 0.604245 0.212395 0.19968 0.718958 1.35716 1.18791 0.87658 0.721577 1.10283
0.84121 0.692139 0.215238 0.937818 0.849544 0.849544 0.753682 0.206279 0.703394 0.35818
0.619122 0.487746 0.568906 0.444729 0.757436 0.382635 0.229011 0.95395 0.436223 0.390105
0.448156 0.413509 0.365025 0.381819 0.338665 0.996584 0.99254 1.09384 0.790789 0.299856
0.93531 0.906075 0.877794 0.843753 0.694509 0.740761 0.581948 0.804109 1.00946 1.26999
0.825405 0.878828 0.613165 0.995486 0.821031 0.825752 0.773585 0.564351 0.726765 0.630808
0.346412 0.516627 0.671715 0.845577 0.580489 1.02121 0.654427 0.686577 0.659618 0.648497
0.648661 0.553549 0.623968 0.607488 0.210097 0.345831 0.900003 0.230226 0.334502 0.326511
0.117912 0.401587 0.368304 0.379491 0.128671 0.131764 0.154381 0.0833782 0.0831814 0.84973
0.934808 0.238579 0.50183 0.328015 0.731853 0.987647 0.891175 0.950138 0.968296 0.727708
0.463838 0.588564 0.944626 0.951304 1.19212 0.87092 1.12054 1.02199 0.883428 0.877898
0.629868 1.08285 1.01447 0.931974 1.30126 1.03028 1.25193 1.33184 0.836094 1.07298
0.771317 0.521926 0.831891 0.807688 0.807688 0.745321 0.169776 0.606987 0.850549 0.793126