# vtk DataFile Version 2.0
sampleSurface
ASCII
DATASET POLYDATA
POINTS 28187 float
-1324.23 -1350.14 1.5 -1423.91 -1350.14 1.5 -1423.91 -1421.2 1.5 -1324.23 -1421.2
1.5 -1224.56 -1350.14 1.5 -1224.56 -1421.2 1.5 -1124.89 -1350.14 1.5
-1124.89 -1421.2 1.5 -1025.21 -1350.14 1.5 -1025.21 -1421.2 1.5 -925.54
-1350.14 1.5 -925.54 -1421.2 1.5 -825.867 -1350.14 1.5 -825.867 -1421.2
1.5 -726.193 -1350.14 1.5 -726.193 -1421.2 1.5 -626.52 -1350.14 1.5
-626.52 -1421.2 1.5 -526.846 -1350.14 1.5 -526.846 -1421.2 1.5 -427.173
-1350.14 1.5 -427.173 -1421.2 1.5 -327.499 -1350.14 1.5 -327.499 -1421.2
1.5 -227.826 -1350.14 1.5 -227.826 -1421.2 1.5 -128.152 -1350.14 1.5
-128.152 -1421.2 1.5 -28.4785 -1350.14 1.5 -28.4785 -1421.2 1.5 71.195
-1350.14 1.5 71.195 -1421.2 1.5 170.869 -1350.14 1.5 170.869 -1421.2
1.5 270.542 -1350.14 1.5 270.542 -1421.2 1.5 370.216 -1350.14 1.5
370.216 -1421.2 1.5 469.889 -1350.14 1.5 469.889 -1421.2 1.5 569.563
-1350.14 1.5 569.563 -1421.2 1.5 669.237 -1350.14 1.5 669.237 -1421.2
1.5 768.91 -1350.14 1.5 768.91 -1421.2 1.5 868.584 -1350.14 1.5
868.584 -1421.2 1.5 968.257 -1350.14 1.5 968.257 -1421.2 1.5 1067.93
-1350.14 1.5 1067.93 -1421.2 1.5 1167.6 -1350.14 1.5 1167.6 -1421.2
1.5 1267.28 -1350.14 1.5 1267.28 -1421.2 1.5 1366.95 -1350.14 1.5
1366.95 -1421.2 1.5 1466.63 -1350.14 1.5 1466.63 -1421.2 1.5 1566.3
-1350.14 1.5 1566.3 -1421.2 1.5 1665.97 -1350.14 1.5 1665.97 -1421.2
1.5 1765.65 -1350.14 1.5 1765.65 -1421.2 1.5 1865.32 -1350.14 1.5
1865.32 -1421.2 1.5 1964.99 -1350.14 1.5 1964.99 -1421.2 1.5 2064.67
-1350.14 1.5 2064.67 -1421.2 1.5 2164.34 -1350.14 1.5 2164.34 -1421.2
1.5 2264.01 -1350.14 1.5 2264.01 -1421.2 1.5 2363.69 -1350.14 1.5
2363.69 -1421.2 1.5 2463.36 -1350.14 1.5 2463.36 -1421.2 1.5 2563.03
-1350.14 1.5 2563.03 -1421.2 1.5 2662.71 -1350.14 1.5 2662.71 -1421.2
1.5 2762.38 -1350.14 1.5 2762.38 -1421.2 1.5 2862.06 -1350.14 1.5
2862.06 -1421.2 1.5 2961.73 -1350.14 1.5 2961.73 -1421.2 1.5 3061.4
-1350.14 1.5 3061.4 -1421.2 1.5 3161.08 -1350.14 1.5 3161.08 -1421.2
1.5 3260.75 -1350.14 1.5 3260.75 -1421.2 1.5 3360.42 -1350.14 1.5
3360.42 -1421.2 1.5 3460.1 -1350.14 1.5 3460.1 -1421.2 1.5 3559.77
-1421.2 1.5 3559.77 -1350.14 1.5 -1324.23 -1279.08 1.5 -1423.91 -1279.08
1.5 -1224.56 -1279.08 1.5 -1124.89 -1279.08 1.5 -1025.21 -1279.08 1.5
-925.54 -1279.08 1.5 -825.867 -1279.08 1.5 -726.193 -1279.08 1.5 -626.52
-1279.08 1.5 -526.846 -1279.08 1.5 -427.173 -1279.08 1.5 -327.499 -1279.08
1.5 -227.826 -1279.08 1.5 -128.152 -1279.08 1.5 -28.4786 -1279.08 1.5
71.195 -1279.08 1.5 170.869 -1279.08 1.5 270.542 -1279.08 1.5 370.216
-1279.08 1.5 469.889 -1279.08 1.5 569.563 -1279.08 1.5 669.237 -1279.08
1.5 768.91 -1279.08 1.5 868.584 -1279.08 1.5 968.257 -1279.08 1.5
1067.93 -1279.08 1.5 1167.6 -1279.08 1.5 1267.28 -1279.08 1.5 1366.95
-1279.08 1.5 1466.63 -1279.08 1.5 1566.3 -1279.08 1.5 1665.97 -1279.08
1.5 1765.65 -1279.08 1.5 1865.32 -1279.08 1.5 1964.99 -1279.08 1.5
2064.67 -1279.08 1.5 2164.34 -1279.08 1.5 2264.01 -1279.08 1.5 2363.69
-1279.08 1.5 2463.36 -1279.08 1.5 2563.03 -1279.08 1.5 2662.71 -1279.08
1.5 2762.38 -1279.08 1.5 2862.06 -1279.08 1.5 2961.73 -1279.08 1.5
3061.4 -1279.08 1.5 3161.08 -1279.08 1.5 3260.75 -1279.08 1.5 3360.42
-1279.08 1.5 3460.1 -1279.08 1.5 3559.77 -1279.08 1.5 -1324.23 -1208.02
1.5 -1423.91 -1208.02 1.5 -1224.56 -1208.02 1.5 -1124.89 -1208.02 1.5
-1025.21 -1208.02 1.5 -925.54 -1208.02 1.5 -825.867 -1208.02 1.5 -726.193
-1208.02 1.5 -626.52 -1208.02 1.5 -526.846 -1208.02 1.5 -427.173 -1208.02
1.5 -327.499 -1208.02 1.5 -227.826 -1208.02 1.5 -128.152 -1208.02 1.5
-28.4786 -1208.02 1.5 71.1949 -1208.02 1.5 170.868 -1208.02 1.5 270.542
-1208.02 1.5 370.216 -1208.02 1.5 469.889 -1208.02 1.5 569.563 -1208.02
1.5 669.236 -1208.02 1.5 768.91 -1208.02 1.5 868.584 -1208.02 1.5
968.257 -1208.02 1.5 1067.93 -1208.02 1.5 1167.6 -1208.02 1.5 1267.28
-1208.02 1.5 1366.95 -1208.02 1.5 1466.63 -1208.02 1.5 1566.3 -1208.02
1.5 1665.97 -1208.02 1.5 1765.65 -1208.02 1.5 1865.32 -1208.02 1.5
1964.99 -1208.02 1.5 2064.67 -1208.02 1.5 2164.34 -1208.02 1.5 2264.01
-1208.02 1.5 2363.69 -1208.02 1.5 2463.36 -1208.02 1.5 2563.03 -1208.02
1.5 2662.71 -1208.02 1.5 2762.38 -1208.02 1.5 2862.06 -1208.02 1.5
2961.73 -1208.02 1.5 3061.4 -1208.02 1.5 3161.08 -1208.02 1.5 3260.75
-1208.02 1.5 3360.42 -1208.02 1.5 3460.1 -1208.02 1.5 3559.77 -1208.02
1.5 -1324.23 -1136.96 1.5 -1423.91 -1136.96 1.5 -1224.56 -1136.96 1.5
-1124.89 -1136.96 1.5 -1025.21 -1136.96 1.5 -925.54 -1136.96 1.5 -825.867
-1136.96 1.5 -726.193 -1136.96 1.5 -626.52 -1136.96 1.5 -526.846 -1136.96
1.5 -427.173 -1136.96 1.5 -327.499 -1136.96 1.5 -227.826 -1136.96 1.5
-128.152 -1136.96 1.5 -28.4787 -1136.96 1.5 71.1948 -1136.96 1.5 170.868
-1136.96 1.5 270.542 -1136.96 1.5 370.216 -1136.96 1.5 469.889 -1136.96
1.5 569.563 -1136.96 1.5 669.236 -1136.96 1.5 768.91 -1136.96 1.5
868.584 -1136.96 1.5 968.257 -1136.96 1.5 1067.93 -1136.96 1.5 1167.6
-1136.96 1.5 1267.28 -1136.96 1.5 1366.95 -1136.96 1.5 1466.63 -1136.96
1.5 1566.3 -1136.96 1.5 1665.97 -1136.96 1.5 1765.65 -1136.96 1.5
1865.32 -1136.96 1.5 1964.99 -1136.96 1.5 2064.67 -1136.96 1.5 2164.34
-1136.96 1.5 2264.01 -1136.96 1.5 2363.69 -1136.96 1.5 2463.36 -1136.96
1.5 2563.03 -1136.96 1.5 2662.71 -1136.96 1.5 2762.38 -1136.96 1.5
2862.06 -1136.96 1.5 2961.73 -1136.96 1.5 3061.4 -1136.96 1.5 3161.08
-1136.96 1.5 3260.75 -1136.96 1.5 3360.42 -1136.96 1.5 3460.1 -1136.96
1.5 3559.77 -1136.96 1.5 -1324.23 -1065.9 1.5 -1423.91 -1065.9 1.5
-1224.56 -1065.9 1.5 -1124.89 -1065.9 1.5 -1025.21 -1065.9 1.5 -925.54
-1065.9 1.5 -825.867 -1065.9 1.5 -726.193 -1065.9 1.5 -626.52 -1065.9
1.5 -526.846 -1065.9 1.5 -427.173 -1065.9 1.5 -327.499 -1065.9 1.5
-227.826 -1065.9 1.5 -128.152 -1065.9 1.5 -28.4788 -1065.9 1.5 71.1947
-1065.9 1.5 170.868 -1065.9 1.5 270.542 -1065.9 1.5 370.215 -1065.9
1.5 469.889 -1065.9 1.5 569.563 -1065.9 1.5 669.236 -1065.9 1.5
768.91 -1065.9 1.5 868.584 -1065.9 1.5 968.257 -1065.9 1.5 1067.93
-1065.9 1.5 1167.6 -1065.9 1.5 1267.28 -1065.9 1.5 1366.95 -1065.9
1.5 1466.63 -1065.9 1.5 1566.3 -1065.9 1.5 1665.97 -1065.9 1.5
1765.65 -1065.9 1.5 1865.32 -1065.9 1.5 1964.99 -1065.9 1.5 2064.67
-1065.9 1.5 2164.34 -1065.9 1.5 2264.01 -1065.9 1.5 2363.69 -1065.9
1.5 2463.36 -1065.9 1.5 2563.03 -1065.9 1.5 2662.71 -1065.9 1.5
2762.38 -1065.9 1.5 2862.06 -1065.9 1.5 2961.73 -1065.9 1.5 3061.4
-1065.9 1.5 3161.08 -1065.9 1.5 3260.75 -1065.9 1.5 3360.42 -1065.9
1.5 3460.1 -1065.9 1.5 3559.77 -1065.9 1.5 -1324.23 -994.838 1.5
-1423.91 -994.838 1.5 -1224.56 -994.838 1.5 -1124.89 -994.838 1.5 -1025.21
-994.838 1.5 -925.54 -994.839 1.5 -825.867 -994.839 1.5 -726.193 -994.838
1.5 -626.52 -994.838 1.5 -526.846 -994.838 1.5 -427.173 -994.838 1.5
-327.499 -994.838 1.5 -227.826 -994.837 1.5 -128.152 -994.837 1.5 -28.4789
-994.837 1.5 71.1945 -994.837 1.5 170.868 -994.837 1.5 270.542 -994.837
1.5 370.215 -994.838 1.5 469.889 -994.838 1.5 569.563 -994.838 1.5
669.237 -994.838 1.5 768.91 -994.838 1.5 868.584 -994.839 1.5 968.257
-994.839 1.5 1067.93 -994.839 1.5 1167.6 -994.839 1.5 1267.28 -994.839
1.5 1366.95 -994.839 1.5 1466.63 -994.839 1.5 1566.3 -994.839 1.5
1665.97 -994.839 1.5 1765.65 -994.839 1.5 1865.32 -994.839 1.5 1964.99
-994.839 1.5 2064.67 -994.839 1.5 2164.34 -994.839 1.5 2264.01 -994.839
1.5 2363.69 -994.839 1.5 2463.36 -994.839 1.5 2563.03 -994.839 1.5
2662.71 -994.839 1.5 2762.38 -994.839 1.5 2862.06 -994.839 1.5 2961.73
-994.839 1.5 3061.4 -994.839 1.5 3161.08 -994.839 1.5 3260.75 -994.839
1.5 3360.42 -994.839 1.5 3460.1 -994.839 1.5 3559.77 -994.839 1.5
-1324.23 -923.778 1.5 -1423.91 -923.778 1.5 -1224.56 -923.778 1.5 -1124.89
-923.779 1.5 -1025.21 -923.779 1.5 -925.54 -923.779 1.5 -825.867 -923.779
1.5 -875.703 -923.779 1.5 -726.193 -923.779 1.5 -776.03 -923.779 1.5
-626.52 -923.779 1.5 -676.356 -923.779 1.5 -526.846 -923.779 1.5 -576.683
-923.779 1.5 -427.172 -923.778 1.5 -477.009 -923.779 1.5 -327.499 -923.778
1.5 -377.336 -923.778 1.5 -227.826 -923.778 1.5 -277.662 -923.778 1.5
-128.152 -923.778 1.5 -177.989 -923.778 1.5 -28.4788 -923.777 1.5 -78.3154
-923.777 1.5 71.1947 -923.777 1.5 21.358 -923.777 1.5 170.868 -923.778
1.5 121.031 -923.777 1.5 270.542 -923.778 1.5 220.705 -923.778 1.5
370.216 -923.778 1.5 320.379 -923.778 1.5 469.889 -923.778 1.5 420.053
-923.778 1.5 569.563 -923.779 1.5 519.726 -923.778 1.5 669.237 -923.779
1.5 619.4 -923.779 1.5 768.91 -923.779 1.5 719.073 -923.779 1.5
868.584 -923.779 1.5 818.747 -923.779 1.5 968.257 -923.779 1.5 918.421
-923.779 1.5 1067.93 -923.779 1.5 1167.6 -923.779 1.5 1267.28 -923.779
1.5 1366.95 -923.779 1.5 1466.63 -923.779 1.5 1566.3 -923.779 1.5
1665.97 -923.779 1.5 1765.65 -923.779 1.5 1865.32 -923.779 1.5 1964.99
-923.779 1.5 2064.67 -923.779 1.5 2164.34 -923.779 1.5 2264.01 -923.779
1.5 2363.69 -923.779 1.5 2463.36 -923.779 1.5 2563.03 -923.779 1.5
2662.71 -923.779 1.5 2762.38 -923.779 1.5 2862.06 -923.779 1.5 2961.73
-923.779 1.5 3061.4 -923.779 1.5 3161.08 -923.779 1.5 3260.75 -923.779
1.5 3360.42 -923.779 1.5 3460.1 -923.779 1.5 3559.77 -923.779 1.5
-1324.23 -852.718 1.5 -1423.91 -852.718 1.5 -1224.56 -852.718 1.5 -1124.89
-852.719 1.5 -1025.21 -852.719 1.5 -925.54 -888.249 1.5 -925.54 -852.719
1.5 -875.703 -888.249 1.5 -776.03 -888.249 1.5 -800.948 -888.249 1.5
-825.867 -888.249 1.5 -676.356 -888.249 1.5 -701.275 -888.249 1.5 -726.193
-888.249 1.5 -576.683 -888.249 1.5 -601.601 -888.249 1.5 -626.52 -888.249
1.5 -477.009 -888.249 1.5 -501.928 -888.249 1.5 -526.846 -888.249 1.5
-377.336 -888.249 1.5 -402.254 -888.249 1.5 -427.172 -888.249 1.5 -277.662
-888.249 1.5 -302.58 -888.249 1.5 -327.499 -888.249 1.5 -177.989 -888.249
1.5 -202.907 -888.249 1.5 -227.825 -888.249 1.5 -78.3149 -888.249 1.5
-103.233 -888.249 1.5 -128.152 -888.249 1.5 21.3586 -888.249 1.5 -3.55977
-888.249 1.5 -28.4782 -888.249 1.5 121.032 -888.249 1.5 96.1138 -888.249
1.5 71.1954 -888.249 1.5 220.706 -888.249 1.5 195.787 -888.249 1.5
170.869 -888.249 1.5 320.379 -888.249 1.5 295.461 -888.249 1.5 270.543
[...]
CELL_DATA 27275
FIELD attributes 2
k 1 27275 float
5.52521 3.95432 3.52873 3.33992 3.21079 3.11846 3.04643 2.98303 2.92602 2.87617 2.83287
2.79512 2.75605 2.70293 2.65191 2.60552 2.56366 2.5258 2.49156 2.46075 2.43331
2.40917 2.38817 2.37004 2.35429 2.34024 2.32707 2.31406 2.30074 2.28703 2.2731
2.25919 2.24543 2.23193 2.21875 2.20593 2.19351 2.18147 2.16983 2.15857 2.14769
2.13717 2.12699 2.11717 2.10764 2.09839 2.08985 2.0796 2.07478 2.06103 5.52518
3.95433 3.52883 3.34013 3.21108 3.11868 3.0464 2.98269 2.92555 2.87578 2.83261
2.79499 2.75598 2.70296 2.65198 2.60556 2.56357 2.52554 2.49113 2.46019 2.43264
2.40844 2.38747 2.36951 2.35402 2.34028 2.3274 2.31454 2.30121 2.2874 2.27336
2.25935 2.24553 2.23198 2.21877 2.20592 2.19348 2.18143 2.16978 2.15851 2.14762
2.1371 2.12691 2.11709 2.10754 2.09829 2.08975 2.07949 2.07468 2.06091 5.52518
3.95439 3.52905 3.34056 3.21165 3.11919 3.04636 2.98196 2.92457 2.87493 2.83202
2.79466 2.75579 2.70305 2.65224 2.60578 2.56359 2.52527 2.49053 2.45926 2.43144
2.40713 2.38623 2.36856 2.35359 2.34047 2.32813 2.31552 2.30215 2.28812 2.27387
2.25969 2.24575 2.23211 2.21882 2.20594 2.19346 2.18139 2.16973 2.15846 2.14756
2.13704 2.12685 2.11703 2.10749 2.09823 2.08969 2.07943 2.07461 2.06086 5.52519
3.9545 3.52939 3.34125 3.2127 3.12013 3.0463 2.9808 2.92314 2.87385 2.83137
2.79437 2.75576 2.70335 2.65265 2.60604 2.56347 2.52463 2.48934 2.45759 2.42942
2.40497 2.38414 2.36701 2.35295 2.34089 2.32945 2.31721 2.30366 2.28923 2.27462
2.26019 2.24605 2.23226 2.21887 2.2059 2.19336 2.18125 2.16956 2.15826 2.14734
2.1368 2.1266 2.11677 2.10722 2.09795 2.08941 2.07913 2.07432 2.06054 5.52519
3.95464 3.52983 3.34222 3.21458 3.12206 3.0463 2.9788 2.92085 2.87225 2.8306
2.79426 2.75649 2.70473 2.65423 2.60738 2.56413 2.52441 2.48826 2.45574 2.42693
2.40206 2.38148 2.3648 2.35184 2.34135 2.3314 2.31977 2.30586 2.29076 2.2756
2.26083 2.24646 2.23251 2.21902 2.20599 2.19341 2.18127 2.16957 2.15826 2.14734
2.1368 2.1266 2.11677 2.10722 2.09795 2.0894 2.07911 2.07429 2.06051 5.5252
3.95477 3.53024 3.34339 3.21722 3.12549 3.04693 2.97678 2.91883 2.87128 2.83059
2.79496 2.75904 2.70835 2.65816 2.61089 2.56678 2.52594 2.48864 2.45507 2.42539
2.39991 2.37939 2.36429 2.35255 2.34355 2.3352 2.32406 2.30954 2.29359 2.27782
2.26265 2.24798 2.23382 2.22019 2.20707 2.19444 2.18227 2.17053 2.15922 2.14829
2.13775 2.12754 2.11771 2.10815 2.09889 2.09032 2.08004 2.07521 2.06142 5.52519
3.95475 3.53021 3.34441 3.22009 3.13159 3.04415 2.97058 2.91525 2.8714 2.83358
2.79951 2.76926 2.72028 2.66996 2.62121 2.57498 2.53205 2.49312 2.45841 2.42839
2.40351 2.38377 2.37328 2.36866 2.36427 2.35671 2.34283 2.32455 2.30588 2.28849
2.27216 2.25653 2.24155 2.2272 2.21348 2.20032 2.18768 2.17554 2.16385 2.15258
2.14173 2.13124 2.12114 2.11135 2.10184 2.09309 2.08253 2.0776 2.06348 5.52522
3.95436 3.52734 3.35026 3.11486 2.98028 2.99583 2.97089 2.91972 2.87975 2.84101
2.80454 2.76942 2.73352 2.69534 2.65457 2.61311 2.57338 2.53711 2.50503 2.4773
2.45546 2.44972 2.40461 2.69575 2.64518 2.54646 2.47483 2.4227 2.38428 2.3544
2.32916 2.30667 2.28621 2.26742 2.25002 2.23377 2.21851 2.20411 2.19047 2.17749
2.16514 2.15331 2.14203 2.13117 2.1207 2.11111 2.09959 2.09424 2.07895 5.52523
3.95431 3.52744 3.35156 3.12213 2.92776 3.04241 2.87252 2.79458 2.66771 2.57011
2.49852 2.44657 2.4072 2.375 2.34711 2.32236 2.30007 2.27976 2.26105 2.24368
2.22745 2.2122 2.19782 2.18421 2.17127 2.15897 2.1472 2.13587 2.12556 2.11317
2.10747 2.09102 5.52525 3.95449 3.52805 3.35329 3.12651 2.94757 3.05875 2.87677
2.79662 2.66997 2.57205 2.49953 2.4466 2.40652 2.37381 2.34551 2.32045 2.29793
2.27745 2.25859 2.2411 2.22477 2.20945 2.19502 2.18137 2.1684 2.15608 2.1443
2.13296 2.12266 2.11023 2.10456 2.08817 5.52525 3.95463 3.52852 3.35444 3.12877
2.95232 3.05202 2.87477 2.79555 2.66999 2.57307 2.50042 2.44681 2.40613 2.373
2.34439 2.31907 2.29636 2.27573 2.25677 2.23917 2.22275 2.20735 2.19283 2.17909
2.16603 2.15364 2.14178 2.13036 2.12002 2.10747 2.1018 2.08519 5.52525 3.95471
3.52876 3.35496 3.1294 2.95328 3.04463 2.87299 2.79502 2.67064 2.57433 2.50163
2.44762 2.40656 2.37312 2.34428 2.31879 2.29596 2.27526 2.25629 2.23873 2.22236
2.20702 2.19258 2.17894 2.16599 2.1537 2.14194 2.13062 2.12035 2.10791 2.10226
2.08592 5.52524 3.95471 3.52876 3.35491 3.12906 2.95213 3.0353 2.86951 2.79291
2.66872 2.57322 2.50101 2.44716 2.40609 2.37255 2.34354 2.31784 2.29477 2.27382
2.25457 2.23675 2.22015 2.20459 2.18995 2.17612 2.16301 2.15057 2.13869 2.12723
2.11688 2.10427 2.09861 2.08191 5.52523 3.95464 3.52855 3.35443 3.12804 2.9497
3.02292 2.86307 2.78823 2.66296 2.56818 2.49644 2.44272 2.4016 2.36804 2.3391
2.31354 2.29066 2.26996 2.25099 2.23346 2.21716 2.2019 2.18754 2.17398 2.16111
2.14888 2.13717 2.12589 2.11567 2.10324 2.09763 2.08132 5.52522 3.95452 3.52819
3.35368 3.12656 2.94642 3.01713 2.87378 2.7984 2.68103 2.58724 2.51483 2.46009
2.41786 2.38313 2.35298 2.32622 2.30222 2.28047 2.26055 2.24217 2.22508 2.2091
2.19409 2.17995 2.16656 2.15388 2.14178 2.13013 2.11963 2.10686 2.10114 2.08425
5.5252 3.95437 3.5277 3.35269 3.12476 2.94249 3.08438 2.89078 2.8111 2.6974
2.60058 2.52481 2.4675 2.42347 2.38752 2.35654 2.3292 2.30479 2.28273 2.26258
2.244 2.22675 2.21063 2.19547 2.18118 2.16765 2.15483 2.14261 2.13084 2.12021
2.10734 2.1015 2.08451 5.52518 3.95419 3.5272 3.35163 3.12282 2.9382 3.02568
2.85042 2.78186 2.65996 2.56778 2.49669 2.44259 2.40058 2.36586 2.33563 2.30884
2.28487 2.26322 2.24343 2.2252 2.20827 2.19244 2.17757 2.16355 2.15028 2.13771
2.12574 2.1142 2.10387 2.09119 2.08562 2.06892 5.52516 3.95402 3.52667 3.35059
3.12089 2.9338 2.9445 2.75277 2.63415 2.48449 2.38756 2.3168 2.26386 2.22319
2.18989 2.16143 2.1368 2.11537 2.0965 2.07966 2.06444 2.05056 2.03778 2.02597
2.01499 2.00475 1.99516 1.98615 1.97751 1.96997 1.96062 1.95663 1.94458 5.52514
3.95387 3.52622 3.34965 3.11916 2.92975 2.09678 2.40332 2.37456 2.31769 2.27984
2.25491 2.24043 2.23262 2.22738 2.2231 2.21942 2.21619 2.21321 2.21028 2.2072
2.20388 2.20037 2.19669 2.1929 2.18897 2.18493 2.18065 2.17646 2.17185 2.16714
2.16382 2.15654 5.52513 3.95375 3.52584 3.34897 3.11785 2.92645 4.18118 3.74629
3.5134 3.34364 3.21754 3.12318 3.05114 2.99325 2.94476 2.90302 2.8666 2.83451
2.80589 2.78099 2.7499 2.71366 2.67993 2.64965 2.62243 2.59764 2.57484 2.55363
2.53371 2.51551 2.49585 2.48411 2.45836 5.52512 3.95369 3.52564 3.34863 3.11708
2.92439 2.17629 2.21964 2.17412 2.09946 2.04915 2.01273 1.98751 1.96992 1.95635
1.94498 1.93523 1.92679 1.91942 1.91285 1.90677 1.90101 1.8956 1.89056 1.88585
1.88139 1.87717 1.87305 1.86919 1.8654 1.86118 1.85893 1.85215 5.52512 3.95368
3.52564 3.34858 3.117 2.92392 2.26917 2.28507 2.19446 2.09328 2.0311 1.98309
1.94545 1.91587 1.89143 1.87039 1.85212 1.83615 1.82207 1.8095 1.79817 1.78787
1.77842 1.7697 1.76162 1.75413 1.74713 1.7406 1.73426 1.72906 1.72171 1.71959
1.71099 5.52513 3.95374 3.52581 3.34888 3.11764 2.92504 3.11239 3.01465 2.91463
2.82387 2.7523 2.66116 2.58362 2.52216 2.47206 2.42957 2.39274 2.36035 2.3315
2.30551 2.28186 2.26017 2.24013 2.22153 2.2042 2.18795 2.17271 2.15831 2.14458
2.13228 2.11758 2.11084 2.0909 5.52514 3.95385 3.52615 3.34954 3.11894 2.92763
2.89254 2.93609 2.87653 2.8108 2.77154 2.71777 2.67195 2.63638 2.60772 2.58301
2.56083 2.54052 2.52161 2.50378 2.48684 2.47062 2.45503 2.44001 2.42551 2.41146
2.39786 2.38464 2.37172 2.35966 2.34574 2.33792 2.3196 5.52517 3.95399 3.52657
3.35041 3.12067 2.93133 3.57917 2.93215 2.84514 2.75875 2.66862 2.59304 2.5344
2.48977 2.45403 2.42377 2.39741 2.37409 2.35313 2.33403 2.31643 2.30007 2.28476
2.27036 2.25675 2.24383 2.23156 2.21978 2.20854 2.19805 2.18608 2.17982 2.16336
5.52519 3.95414 3.52703 3.35138 3.12257 2.93561 2.84182 2.74711 2.65051 2.51922
2.4283 2.35992 2.30857 2.26908 2.23664 2.20867 2.18413 2.16244 2.14305 2.12551
2.1095 2.09476 2.08112 2.06842 2.05656 2.04542 2.03493 2.02502 2.01546 2.00706
1.99653 1.99212 1.9786 5.52521 3.95428 3.52746 3.35229 3.12441 2.94004 2.95844
2.82276 2.7394 2.60032 2.50567 2.43696 2.38604 2.34684 2.31443 2.28618 2.26106
2.2385 2.21802 2.19921 2.1818 2.16557 2.15036 2.13604 2.12251 2.10967 2.09748
2.08584 2.07458 2.06451 2.05198 2.04663 2.03027 5.52522 3.95439 3.52778 3.353
3.12591 2.94412 3.01549 2.85474 2.78023 2.65005 2.5555 2.48479 2.4318 2.39099
2.35736 2.32812 2.30214 2.27882 2.25764 2.23821 2.22025 2.20356 2.18795 2.17327
2.15943 2.1463 2.13386 2.12198 2.11053 2.10022 2.08758 2.08201 2.06535 5.52524
3.95443 3.52794 3.35334 3.12681 2.94735 3.03477 2.86508 2.78872 2.66173 2.56583
2.49379 2.44035 2.39966 2.36648 2.3378 2.31242 2.28967 2.26903 2.25007 2.23254
2.21619 2.20087 2.18643 2.17278 2.15981 2.14749 2.1357 2.12433 2.11404 2.10149
2.09585 2.07935 5.52525 3.95441 3.52785 3.35315 3.12674 2.94913 3.04531 2.87019
2.7921 2.66569 2.56959 2.49791 2.44509 2.40498 2.3722 2.34379 2.31856 2.29587
2.27522 2.25621 2.23858 2.22211 2.20665 2.19208 2.1783 2.16521 2.15278 2.14089
2.12944 2.11906 2.10646 2.10076 2.08411 5.52524 3.95432 3.52753 3.35231 3.12502
2.9479 3.05277 2.87342 2.79418 2.66714 2.57001 2.49825 2.44587 2.40617 2.37367
2.34549 2.32046 2.29797 2.27749 2.25865 2.24115 2.2248 2.20947 2.19502 2.18135
2.16836 2.15603 2.14422 2.13285 2.12252 2.11004 2.10435 2.08788 5.52524 3.9542
3.52709 3.35088 3.12113 2.93942 3.05426 2.86918 2.79214 2.66484 2.56806 2.49728
2.44598 2.40713 2.37531 2.34769 2.32313 2.30099 2.28078 2.26214 2.24481 2.22861
2.21338 2.199 2.18538 2.17243 2.16012 2.14832 2.13698 2.12664 2.11422 2.1085
2.09204 5.52523 3.95429 3.52712 3.34984 3.11425 2.88884 2.75511 2.83319 2.83805
2.82722 2.80927 2.78922 2.76777 2.74269 2.71081 2.67148 2.6264 2.58109 2.54012
2.50495 2.47489 2.44925 2.42701 2.72987 2.6899 2.64014 2.54282 2.47226 2.42095
2.38315 2.35372 2.32882 2.30657 2.28628 2.2676 2.25027 2.23406 2.21882 2.20443
2.19079 2.1778 2.16543 2.15359 2.14228 2.1314 2.1209 2.11129 2.09974 2.09438
2.07903 5.5252 3.95471 3.53009 3.34423 3.2199 3.13151 3.04454 2.97176 2.91771
2.87582 2.84023 2.80868 2.78086 2.74175 2.69207 2.63853 2.58533 2.53564 2.49159
2.45383 2.42253 2.39774 2.37852 2.36864 2.3648 2.36124 2.35442 2.34117 2.32344
2.30524 2.28823 2.27221 2.25683 2.24204 2.22785 2.21422 2.20114 2.18856 2.17645
2.16479 2.15354 2.1427 2.13221 2.12211 2.1123 2.10279 2.09401 2.08344 2.0785
2.06437 5.52521 3.95476 3.53022 3.34339 3.21732 3.12577 3.04761 2.97822 2.9212
2.87496 2.83596 2.80174 2.77258 2.72551 2.67542 2.62565 2.57729 2.53183 2.49059
2.45426 2.42307 2.39702 2.37652 2.36174 2.35047 2.34202 2.33428 2.32365 2.3096
2.29406 2.27864 2.26374 2.24931 2.23533 2.22183 2.2088 2.19623 2.18411 2.17239
2.16109 2.15017 2.13961 2.1294 2.11955 2.10996 2.10068 2.09208 2.08177 2.07691
2.06308 5.5252 3.95466 3.5299 3.34237 3.21489 3.12265 3.04732 2.98054 2.92349
2.87609 2.83584 2.80042 2.76946 2.71978 2.66911 2.62036 2.57393 2.5306 2.49121
2.45629 2.42601 2.40038 2.37958 2.36297 2.35028 2.34017 2.33066 2.31944 2.30595
2.29121 2.27637 2.26186 2.2477 2.23393 2.22056 2.20763 2.19512 2.18304 2.17136
2.16008 2.14917 2.13863 2.12842 2.11858 2.10901 2.09973 2.09116 2.08085 2.07601
2.06221 5.5252 3.95454 3.52951 3.34151 3.21318 3.12093 3.04757 2.98275 2.92594
2.8777 2.83643 2.80013 2.76756 2.71683 2.66595 2.61782 2.57277 2.53102 2.49302
2.45915 2.4295 2.40411 2.3829 2.36564 2.35166 2.33985 2.32875 2.31688 2.30368
2.28958 2.27526 2.26108 2.24716 2.23354 2.22029 2.20743 2.19497 2.18292 2.17126
2.15998 2.14908 2.13854 2.12833 2.11849 2.10892 2.09963 2.09107 2.08077 2.07594
2.06213 5.52519 3.95445 3.52922 3.3409 3.21224 3.12013 3.0478 2.98406 2.92749
2.87879 2.83695 2.80015 2.76679 2.71547 2.66442 2.6167 2.57243 2.53162 2.49449
2.46126 2.43201 2.40674 2.38531 2.36743 2.3525 2.33956 2.32752 2.31524 2.30219
2.28849 2.27453 2.26061 2.24687 2.23341 2.22026 2.20749 2.19509 2.18309 2.17147
2.16022 2.14934 2.13882 2.12863 2.11881 2.10925 2.09998 2.09142 2.08115 2.07632
2.06254 5.52519 3.9544 3.52902 3.34052 3.21175 3.11972 3.04795 2.98488 2.92853
2.87964 2.83744 2.80028 2.76645 2.71469 2.66348 2.61589 2.57208 2.53191 2.49535
2.46253 2.43357 2.40841 2.38689 2.36865 2.35312 2.33949 2.32683 2.31425 2.30122
2.28771 2.27395 2.26019 2.24658 2.23321 2.22014 2.2074 2.19504 2.18306 2.17145
2.16021 2.14934 2.13882 2.12863 2.1188 2.10925 2.09998 2.09142 2.08115 2.07632
2.06253 5.52522 3.95439 3.52894 3.34034 3.21149 3.11955 3.04803 2.98526 2.92902
2.88003 2.83765 2.80032 2.76627 2.71433 2.66308 2.61559 2.57202 2.53214 2.49585
2.46323 2.43441 2.40929 2.38768 2.36924 2.35343 2.33947 2.32652 2.31378 2.30075
2.28734 2.27369 2.26002 2.24648 2.23316 2.22012 2.20742 2.19508 2.18311 2.17151
2.16029 2.14942 2.13891 2.12873 2.11891 2.10936 2.1001 2.09154 2.08128 2.07645
2.06267 0.286938 2.28781 0.608937 0.831927 0.546231 0.470202 1.29885 1.09633 1.58222
3.64261 0.0748633 1.9424 0.971498 1.05185 0.568163 1.64213 0.520307 1.05508 0.618206
1.13434 0.797615 0.536027 0.53937 1.02644 1.43454 0.435112 1.27719 0.420338 1.25559
2.69943 0.0998798 0.780008 1.76662 0.917479 1.03475 1.37618 2.90284 0.867878 0.819391
1.26702 0.891852 2.30156 0.536813 1.59039 2.56124 2.51438 2.54278 2.41844 2.40595
2.23589 2.48339 0.760923 1.73986 2.0897 0.533451 0.576799 4.56461 2.6954 2.71964
0.93574 1.22799 1.19408 0.858559 1.8162 0.723626 1.55774 1.61694 0.290548 0.396403
0.286744 0.3221 0.28824 0.896345 1.75427 1.79291 0.814365 0.352397 0.614021 0.219251
0.574125 0.466333 0.77898 0.977945 1.3252 1.56297 2.17788 2.27236 2.07185 2.47247
0.282483 0.459255 0.382179 0.494804 0.862567 0.476502 1.00092 0.627009 1.52919 1.36883
1.53645 2.66603 2.71527 1.43331 0.492511 0.720061 2.06624 1.20086 2.55533 2.59106
0.808087 2.68466 1.57698 1.5658 2.68787 1.18354 0.503094 0.613431 0.709623 0.794569
2.52721 1.54553 1.46861 2.67411 0.9802 1.22206 0.900551 0.845084 2.55642 2.64608
2.80083 2.62767 1.49953 1.71788 2.85019 0.662354 1.99223 2.10374 1.27094 2.37659
1.69267 1.0418 0.533781 0.609817 0.450639 2.47321 0.457553 0.171791 1.49109 0.861981
2.78575 0.70318 2.17323 0.874591 1.23036 1.90266 1.64967 1.27776 2.02604 0.814798
1.24036 1.21758 2.21307 2.09409 0.671054 1.34453 2.07915 1.05427 1.91229 1.53639
1.75047 1.28935 1.20489 0.496848 0.310688 0.900234 1.76854 2.66013 2.57342 1.21068
1.33371 1.40958 2.34885 0.825597 2.37476 0.730193 0.746196 1.24472 0.88438 0.562555
0.708331 1.54596 0.892205 1.44547 1.87993 1.61256 1.99347 1.18494 1.39964 0.813204
0.641604 1.47692 1.39804 1.49234 1.77752 1.76793 0.514115 0.371954 0.380705 0.39664
1.46639 1.09953 1.03417 0.514052 0.348346 0.835925 0.619133 1.19803 1.88345 0.868787
2.00551 0.703901 1.13048 1.33001 0.532638 0.258532 0.997741 0.502858 0.570016 0.682804
1.23088 0.456802 0.304272 1.04629 0.905327 0.239792 0.47805 0.939741 1.79254 0.698145
1.78967 0.703924 0.701385 0.52292 0.751732 0.407872 1.93457 0.716469 0.740511 1.83161
0.7513 0.806353 1.16332 2.06763 2.13549 1.09248 0.797899 1.8001 1.23549 1.20867
0.501174 0.983787 0.714202 0.692913 1.10442 1.20079 0.413863 0.52973 0.764347 0.328196
0.974311 0.63812 1.40027 1.47999 1.12481 1.05877 0.578414 0.38424 0.8332 0.605491
0.497992 0.330441 0.290433 0.805425 0.603887 1.42837 2.25028 0.866227 2.00259 1.61279
1.44451 1.80186 1.64757 1.71197 0.583682 0.71539 1.01033 0.495214 1.16587 0.41759
1.09475 0.442672 1.70168 1.85027 1.45865 1.76141 0.823087 0.856849 1.44249 0.658866
0.3332 0.585354 0.419736 0.513724 0.553743 1.18892 0.366195 1.61172 1.58459 1.67512
1.44267 2.53168 0.54425 2.96388 0.810207 1.12556 1.35234 1.38142 0.714882 1.07675
0.946892 0.980059 0.819515 0.782394 1.03917 0.703187 1.70954 1.19397 1.20067 0.785747
0.828807 0.57095 1.03114 0.679197 1.75482 1.10045 1.14491 0.769027 1.77642 1.95333
2.06898 1.18719 0.551575 1.33839 0.453204 1.12778 0.936142 0.776291 2.12974 1.59824
2.26411 0.842684 1.11342 1.55403 1.39367 2.36924 1.92349 1.34584 2.32772 0.520599
0.995217 0.942455 0.413444 1.04351 0.967551 1.83579 0.985934 1.14922 1.02799 1.64463
0.510202 0.417722 0.816968 0.423699 0.458338 0.511581 0.738873 1.03844 0.654703 0.690132
0.291132 0.407128 0.903391 1.59842 1.51797 0.593056 1.0822 1.24222 1.15754 1.56652
0.442989 0.873557 5.20175 3.97283 4.57806 2.46609 5.80364 4.79628 4.26062 4.55829
4.99545 1.16565 4.57748 2.02914 1.93176 1.05803 0.934054 2.07866 1.62024 1.3895
1.50094 1.59266 1.53094 2.51533 0.525742 0.880526 1.03305 0.23765 0.328137 0.242529
0.263927 1.45104 1.33399 1.8467 1.16197 1.69619 1.56303 2.11513 2.24934 2.30733
2.1694 0.975742 1.35767 1.24292 1.62407 2.01746 2.0274 2.04555 2.02506 1.43366
1.27322 0.9663 1.47673 1.57336 1.48555 1.35374 1.58293 1.1156 0.491291 0.455983
0.5985 1.24467 1.52347 0.566503 1.06571 1.84778 1.04843 1.99575 0.892202 0.601335
0.796828 0.618537 0.81571 0.286526 0.413198 0.296664 0.366742 0.39959 0.46825 0.749772
0.572507 0.62367 0.450057 0.660907 0.660907 0.350399 0.877425 1.74705 0.943741 1.5632
0.693843 1.24888 1.23766 0.674278 0.54431 0.900531 1.37768 0.455282 1.01667 0.994817
2.00959 1.91101 1.58492 1.2386 1.73101 0.28922 0.74527 0.508791 0.485653 0.617843
0.8572 0.679681 0.810303 1.09053 0.387103 0.672275 0.687264 0.871824 0.563709 0.578707
0.601901 0.577075 0.640808 1.18464 0.839346 0.795769 0.261475 0.504029 0.354673 0.754829
0.651595 0.421432 0.327635 0.496903 0.44548 0.342749 0.688487 0.611538 0.30479 0.562075
0.496704 0.343257 0.844364 1.77115 1.06642 0.78043 1.09177 1.07447 0.310716 1.21723
0.67656 0.750022 1.00761 1.05717 1.04446 0.949104 0.863514 1.06526 0.926491 0.853293
0.957572 1.13294 1.7179 2.70607 2.66277 1.43116 0.656307 1.24898 0.58982 0.622921
1.13516 0.776328 1.21175 0.54646 1.26093 0.806436 0.636755 0.605989 1.4407 1.86915
1.08254 1.79863 1.11315 1.69404 2.67383 1.12227 1.41015 0.993286 1.07151 1.72847
1.14445 0.964922 0.100065 0.324878 0.568168 0.579444 0.490138 0.547921 2.37867 1.97115
2.24795 0.915382 1.97286 2.20635 2.03658 2.09754 2.52537 2.52944 2.15768 2.21126
0.473376 0.580385 0.669117 0.419133 2.45221 1.07845 2.21554 2.24299 0.57427 1.66765
0.955617 1.65545 0.966088 1.67814 1.65445 1.29451 3.12948 2.37201 2.96164 1.38225
0.837819 1.60209 2.7785 2.77734 2.42994 1.467 1.13381 2.77041 2.31195 2.55285
0.479563 2.49013 1.74463 1.70339 0.892677 1.44327 2.4683 1.64141 1.81613 1.2199
1.7852 1.68633 1.68645 1.24784 0.608226 0.667341 1.83006 2.34685 1.05042 1.81378
1.33932 2.54026 1.45536 0.781977 1.96832 0.990167 1.56343 1.33181 0.500504 1.19804
2.07136 2.53017 0.867096 2.42574 2.64596 2.67476 3.03153 1.47384 2.34178 1.86446
2.7351 1.27563 2.57606 2.40451 2.59934 2.20347 2.54502 1.4117 2.5152 2.47461
2.54855 2.40101 1.71567 0.578368 0.960321 2.29884 1.40385 1.25726 1.40387 1.39875
2.03735 1.2492 1.36297 1.56268 2.41287 1.29541 2.39435 2.2359 0.622882 0.900885
0.574666 0.766246 0.291777 1.10253 1.07813 0.671088 0.840781 1.11148 0.961229 0.519924
0.606067 0.702789 0.601507 1.02862 1.52463 0.947355 0.700796 1.16495 0.987176 1.66592
2.63529 2.62864 1.60083 1.35878 1.5079 1.48511 1.72011 1.1286 0.801805 2.12361
0.833332 0.999095 2.0715 0.865041 1.2009 2.04659 0.431214 0.502996 0.249729 0.637295
1.29907 2.27832 2.26741 1.40779 1.19348 1.17685 1.2208 1.18582 0.680568 0.589938
0.742244 1.37291 1.3742 2.25085 1.17596 0.515613 1.89021 2.34497 0.701202 1.45519
1.89416 2.26101 1.09258 0.815044 0.911886 1.21458 1.37604 1.54144 0.423382 0.649921
0.518512 1.13004 0.545441 2.25161 1.06579 2.09788 1.67716 2.61055 1.18223 0.892685
1.90026 1.22599 0.776201 0.78698 0.603075 1.25394 0.872854 0.90479 1.00796 1.76194
0.893486 1.54151 1.38823 1.6287 2.55489 2.77493 2.44043 2.66759 1.96456 1.8103
1.97897 1.63503 1.76862 0.989772 0.809792 0.846685 0.697751 1.23793 0.927024 1.4827
1.53255 1.77937 1.78854 0.955112 1.51223 1.10106 0.746886 0.77869 0.85873 2.55212
2.45207 2.51194 2.45906 2.48865 1.27732 2.47851 0.883732 1.37587 1.04858 1.11562
0.605581 0.625794 0.905007 0.65821 1.10894 1.84772 0.757248 1.91982 0.9957 1.08557
0.764363 1.15292 0.616376 1.38189 3.25956 2.57007 2.27432 0.601111 0.836058 1.48273
1.18943 1.31539 1.05467 1.55813 0.682342 1.18231 1.57518 0.593125 0.764284 0.285039
0.525244 0.608569 0.527992 0.564506 0.447957 1.59771 1.14412 2.87891 2.41102 1.42588