# vtk DataFile Version 2.0
sampleSurface
ASCII
DATASET POLYDATA
POINTS 28311 float
-1488.34 -1520.34 1.5 -1600.36 -1520.34 1.5 -1600.36 -1600.36 1.5 -1488.34 -1600.36
1.5 -1376.31 -1520.34 1.5 -1376.31 -1600.36 1.5 -1264.29 -1520.34 1.5
-1264.29 -1600.36 1.5 -1152.26 -1520.34 1.5 -1152.26 -1600.36 1.5 -1040.24
-1520.34 1.5 -1040.24 -1600.36 1.5 -928.21 -1520.34 1.5 -928.21 -1600.36
1.5 -816.185 -1520.34 1.5 -816.185 -1600.36 1.5 -704.159 -1520.34 1.5
-704.159 -1600.36 1.5 -592.134 -1520.34 1.5 -592.134 -1600.36 1.5 -480.109
-1520.34 1.5 -480.109 -1600.36 1.5 -368.083 -1520.34 1.5 -368.083 -1600.36
1.5 -256.058 -1520.34 1.5 -256.058 -1600.36 1.5 -144.033 -1520.34 1.5
-144.033 -1600.36 1.5 -32.0074 -1520.34 1.5 -32.0074 -1600.36 1.5 80.0179
-1520.34 1.5 80.0179 -1600.36 1.5 192.043 -1520.34 1.5 192.043 -1600.36
1.5 304.069 -1520.34 1.5 304.069 -1600.36 1.5 416.094 -1520.34 1.5
416.094 -1600.36 1.5 528.119 -1520.34 1.5 528.119 -1600.36 1.5 640.145
-1520.34 1.5 640.145 -1600.36 1.5 752.17 -1520.34 1.5 752.17 -1600.36
1.5 864.195 -1520.34 1.5 864.195 -1600.36 1.5 976.221 -1520.34 1.5
976.221 -1600.36 1.5 1088.25 -1520.34 1.5 1088.25 -1600.36 1.5 1200.27
-1520.34 1.5 1200.27 -1600.36 1.5 1312.3 -1520.34 1.5 1312.3 -1600.36
1.5 1424.32 -1520.34 1.5 1424.32 -1600.36 1.5 1536.35 -1520.34 1.5
1536.35 -1600.36 1.5 1648.37 -1520.34 1.5 1648.37 -1600.36 1.5 1760.4
-1520.34 1.5 1760.4 -1600.36 1.5 1872.42 -1520.34 1.5 1872.42 -1600.36
1.5 1984.45 -1520.34 1.5 1984.45 -1600.36 1.5 2096.47 -1520.34 1.5
2096.47 -1600.36 1.5 2208.5 -1520.34 1.5 2208.5 -1600.36 1.5 2320.52
-1520.34 1.5 2320.52 -1600.36 1.5 2432.55 -1520.34 1.5 2432.55 -1600.36
1.5 2544.58 -1520.34 1.5 2544.58 -1600.36 1.5 2656.6 -1520.34 1.5
2656.6 -1600.36 1.5 2768.63 -1520.34 1.5 2768.63 -1600.36 1.5 2880.65
-1520.34 1.5 2880.65 -1600.36 1.5 2992.68 -1520.34 1.5 2992.68 -1600.36
1.5 3104.7 -1520.34 1.5 3104.7 -1600.36 1.5 3216.73 -1520.34 1.5
3216.73 -1600.36 1.5 3328.75 -1520.34 1.5 3328.75 -1600.36 1.5 3440.78
-1520.34 1.5 3440.78 -1600.36 1.5 3552.8 -1520.34 1.5 3552.8 -1600.36
1.5 3664.83 -1520.34 1.5 3664.83 -1600.36 1.5 3776.85 -1520.34 1.5
3776.85 -1600.36 1.5 3888.88 -1520.34 1.5 3888.88 -1600.36 1.5 4000.9
-1600.36 1.5 4000.9 -1520.34 1.5 -1488.34 -1440.33 1.5 -1600.36 -1440.33
1.5 -1376.31 -1440.33 1.5 -1264.29 -1440.33 1.5 -1152.26 -1440.33 1.5
-1040.24 -1440.33 1.5 -928.21 -1440.33 1.5 -816.185 -1440.33 1.5 -704.159
-1440.33 1.5 -592.134 -1440.33 1.5 -480.109 -1440.33 1.5 -368.083 -1440.33
1.5 -256.058 -1440.33 1.5 -144.033 -1440.33 1.5 -32.0074 -1440.33 1.5
80.0179 -1440.33 1.5 192.043 -1440.33 1.5 304.069 -1440.33 1.5 416.094
-1440.33 1.5 528.119 -1440.33 1.5 640.145 -1440.33 1.5 752.17 -1440.33
1.5 864.195 -1440.33 1.5 976.221 -1440.33 1.5 1088.25 -1440.33 1.5
1200.27 -1440.33 1.5 1312.3 -1440.33 1.5 1424.32 -1440.33 1.5 1536.35
-1440.33 1.5 1648.37 -1440.33 1.5 1760.4 -1440.33 1.5 1872.42 -1440.33
1.5 1984.45 -1440.33 1.5 2096.47 -1440.33 1.5 2208.5 -1440.33 1.5
2320.52 -1440.33 1.5 2432.55 -1440.33 1.5 2544.58 -1440.33 1.5 2656.6
-1440.33 1.5 2768.63 -1440.33 1.5 2880.65 -1440.33 1.5 2992.68 -1440.33
1.5 3104.7 -1440.33 1.5 3216.73 -1440.33 1.5 3328.75 -1440.33 1.5
3440.78 -1440.33 1.5 3552.8 -1440.33 1.5 3664.83 -1440.33 1.5 3776.85
-1440.33 1.5 3888.88 -1440.33 1.5 4000.9 -1440.33 1.5 -1488.34 -1360.31
1.5 -1600.36 -1360.31 1.5 -1376.31 -1360.31 1.5 -1264.29 -1360.31 1.5
-1152.26 -1360.31 1.5 -1040.24 -1360.31 1.5 -928.21 -1360.31 1.5 -816.185
-1360.31 1.5 -704.159 -1360.31 1.5 -592.134 -1360.31 1.5 -480.109 -1360.31
1.5 -368.083 -1360.31 1.5 -256.058 -1360.31 1.5 -144.033 -1360.31 1.5
-32.0075 -1360.31 1.5 80.0178 -1360.31 1.5 192.043 -1360.31 1.5 304.069
-1360.31 1.5 416.094 -1360.31 1.5 528.119 -1360.31 1.5 640.145 -1360.31
1.5 752.17 -1360.31 1.5 864.195 -1360.31 1.5 976.221 -1360.31 1.5
1088.25 -1360.31 1.5 1200.27 -1360.31 1.5 1312.3 -1360.31 1.5 1424.32
-1360.31 1.5 1536.35 -1360.31 1.5 1648.37 -1360.31 1.5 1760.4 -1360.31
1.5 1872.42 -1360.31 1.5 1984.45 -1360.31 1.5 2096.47 -1360.31 1.5
2208.5 -1360.31 1.5 2320.52 -1360.31 1.5 2432.55 -1360.31 1.5 2544.58
-1360.31 1.5 2656.6 -1360.31 1.5 2768.63 -1360.31 1.5 2880.65 -1360.31
1.5 2992.68 -1360.31 1.5 3104.7 -1360.31 1.5 3216.73 -1360.31 1.5
3328.75 -1360.31 1.5 3440.78 -1360.31 1.5 3552.8 -1360.31 1.5 3664.83
-1360.31 1.5 3776.85 -1360.31 1.5 3888.88 -1360.31 1.5 4000.9 -1360.31
1.5 -1488.34 -1280.29 1.5 -1600.36 -1280.29 1.5 -1376.31 -1280.29 1.5
-1264.29 -1280.29 1.5 -1152.26 -1280.29 1.5 -1040.24 -1280.29 1.5 -928.21
-1280.29 1.5 -816.185 -1280.29 1.5 -704.159 -1280.29 1.5 -592.134 -1280.29
1.5 -480.109 -1280.29 1.5 -368.083 -1280.29 1.5 -256.058 -1280.29 1.5
-144.033 -1280.29 1.5 -32.0075 -1280.29 1.5 80.0178 -1280.29 1.5 192.043
-1280.29 1.5 304.068 -1280.29 1.5 416.094 -1280.29 1.5 528.119 -1280.29
1.5 640.145 -1280.29 1.5 752.17 -1280.29 1.5 864.195 -1280.29 1.5
976.221 -1280.29 1.5 1088.25 -1280.29 1.5 1200.27 -1280.29 1.5 1312.3
-1280.29 1.5 1424.32 -1280.29 1.5 1536.35 -1280.29 1.5 1648.37 -1280.29
1.5 1760.4 -1280.29 1.5 1872.42 -1280.29 1.5 1984.45 -1280.29 1.5
2096.47 -1280.29 1.5 2208.5 -1280.29 1.5 2320.52 -1280.29 1.5 2432.55
-1280.29 1.5 2544.58 -1280.29 1.5 2656.6 -1280.29 1.5 2768.63 -1280.29
1.5 2880.65 -1280.29 1.5 2992.68 -1280.29 1.5 3104.7 -1280.29 1.5
3216.73 -1280.29 1.5 3328.75 -1280.29 1.5 3440.78 -1280.29 1.5 3552.8
-1280.29 1.5 3664.83 -1280.29 1.5 3776.85 -1280.29 1.5 3888.88 -1280.29
1.5 4000.9 -1280.29 1.5 -1488.34 -1200.27 1.5 -1600.36 -1200.27 1.5
-1376.31 -1200.27 1.5 -1264.29 -1200.27 1.5 -1152.26 -1200.27 1.5 -1040.24
-1200.27 1.5 -928.21 -1200.27 1.5 -816.185 -1200.27 1.5 -704.159 -1200.27
1.5 -592.134 -1200.27 1.5 -480.109 -1200.27 1.5 -368.083 -1200.27 1.5
-256.058 -1200.27 1.5 -144.033 -1200.27 1.5 -32.0076 -1200.27 1.5 80.0177
-1200.27 1.5 192.043 -1200.27 1.5 304.068 -1200.27 1.5 416.094 -1200.27
1.5 528.119 -1200.27 1.5 640.145 -1200.27 1.5 752.17 -1200.27 1.5
864.195 -1200.27 1.5 976.221 -1200.27 1.5 1088.25 -1200.27 1.5 1200.27
-1200.27 1.5 1312.3 -1200.27 1.5 1424.32 -1200.27 1.5 1536.35 -1200.27
1.5 1648.37 -1200.27 1.5 1760.4 -1200.27 1.5 1872.42 -1200.27 1.5
1984.45 -1200.27 1.5 2096.47 -1200.27 1.5 2208.5 -1200.27 1.5 2320.52
-1200.27 1.5 2432.55 -1200.27 1.5 2544.58 -1200.27 1.5 2656.6 -1200.27
1.5 2768.63 -1200.27 1.5 2880.65 -1200.27 1.5 2992.68 -1200.27 1.5
3104.7 -1200.27 1.5 3216.73 -1200.27 1.5 3328.75 -1200.27 1.5 3440.78
-1200.27 1.5 3552.8 -1200.27 1.5 3664.83 -1200.27 1.5 3776.85 -1200.27
1.5 3888.88 -1200.27 1.5 4000.9 -1200.27 1.5 -1488.34 -1120.25 1.5
-1600.36 -1120.25 1.5 -1376.31 -1120.25 1.5 -1264.29 -1120.25 1.5 -1152.26
-1120.25 1.5 -1040.24 -1120.25 1.5 -928.21 -1120.25 1.5 -816.185 -1120.25
1.5 -704.159 -1120.25 1.5 -592.134 -1120.25 1.5 -480.109 -1120.25 1.5
-368.083 -1120.25 1.5 -256.058 -1120.25 1.5 -144.033 -1120.25 1.5 -32.0077
-1120.25 1.5 80.0176 -1120.25 1.5 192.043 -1120.25 1.5 304.068 -1120.25
1.5 416.094 -1120.25 1.5 528.119 -1120.25 1.5 640.145 -1120.25 1.5
752.17 -1120.25 1.5 864.195 -1120.25 1.5 976.221 -1120.25 1.5 1088.25
-1120.25 1.5 1200.27 -1120.25 1.5 1312.3 -1120.25 1.5 1424.32 -1120.25
1.5 1536.35 -1120.25 1.5 1648.37 -1120.25 1.5 1760.4 -1120.25 1.5
1872.42 -1120.25 1.5 1984.45 -1120.25 1.5 2096.47 -1120.25 1.5 2208.5
-1120.25 1.5 2320.52 -1120.25 1.5 2432.55 -1120.25 1.5 2544.58 -1120.25
1.5 2656.6 -1120.25 1.5 2768.63 -1120.25 1.5 2880.65 -1120.25 1.5
2992.68 -1120.25 1.5 3104.7 -1120.25 1.5 3216.73 -1120.25 1.5 3328.75
-1120.25 1.5 3440.78 -1120.25 1.5 3552.8 -1120.25 1.5 3664.83 -1120.25
1.5 3776.85 -1120.25 1.5 3888.88 -1120.25 1.5 4000.9 -1120.25 1.5
-1488.34 -1040.24 1.5 -1600.36 -1040.24 1.5 -1376.31 -1040.24 1.5 -1264.29
-1040.24 1.5 -1152.26 -1040.24 1.5 -1040.24 -1040.24 1.5 -928.21 -1040.24
1.5 -984.223 -1040.24 1.5 -816.185 -1040.24 1.5 -872.197 -1040.24 1.5
-704.159 -1040.24 1.5 -760.172 -1040.24 1.5 -592.134 -1040.24 1.5 -648.147
-1040.24 1.5 -480.109 -1040.23 1.5 -536.121 -1040.24 1.5 -368.083 -1040.23
1.5 -424.096 -1040.23 1.5 -256.058 -1040.23 1.5 -312.071 -1040.23 1.5
-144.033 -1040.23 1.5 -200.045 -1040.23 1.5 -32.0076 -1040.23 1.5 -88.0202
-1040.23 1.5 80.0177 -1040.23 1.5 24.0051 -1040.23 1.5 192.043 -1040.23
1.5 136.03 -1040.23 1.5 304.068 -1040.23 1.5 248.056 -1040.23 1.5
416.094 -1040.23 1.5 360.081 -1040.23 1.5 528.119 -1040.23 1.5 472.107
-1040.23 1.5 640.145 -1040.24 1.5 584.132 -1040.23 1.5 752.17 -1040.24
1.5 696.157 -1040.24 1.5 864.195 -1040.24 1.5 808.183 -1040.24 1.5
976.221 -1040.24 1.5 920.208 -1040.24 1.5 1088.25 -1040.24 1.5 1032.23
-1040.24 1.5 1200.27 -1040.24 1.5 1312.3 -1040.24 1.5 1424.32 -1040.24
1.5 1536.35 -1040.24 1.5 1648.37 -1040.24 1.5 1760.4 -1040.24 1.5
1872.42 -1040.24 1.5 1984.45 -1040.24 1.5 2096.47 -1040.24 1.5 2208.5
-1040.24 1.5 2320.52 -1040.24 1.5 2432.55 -1040.24 1.5 2544.58 -1040.24
1.5 2656.6 -1040.24 1.5 2768.63 -1040.24 1.5 2880.65 -1040.24 1.5
2992.68 -1040.24 1.5 3104.7 -1040.24 1.5 3216.73 -1040.24 1.5 3328.75
-1040.24 1.5 3440.78 -1040.24 1.5 3552.8 -1040.24 1.5 3664.83 -1040.24
1.5 3776.85 -1040.24 1.5 3888.88 -1040.24 1.5 4000.9 -1040.24 1.5
-1488.34 -960.217 1.5 -1600.36 -960.217 1.5 -1376.31 -960.217 1.5 -1264.29
-960.217 1.5 -1152.26 -960.217 1.5 -1040.24 -1000.23 1.5 -1040.24 -960.217
1.5 -984.223 -1000.23 1.5 -872.197 -1000.23 1.5 -900.204 -1000.23 1.5
-928.21 -1000.23 1.5 -760.172 -1000.23 1.5 -788.178 -1000.23 1.5 -816.185
-1000.23 1.5 -648.147 -1000.23 1.5 -676.153 -1000.23 1.5 -704.159 -1000.23
1.5 -536.121 -1000.23 1.5 -564.128 -1000.23 1.5 -592.134 -1000.23 1.5
-424.096 -1000.23 1.5 -452.102 -1000.23 1.5 -480.109 -1000.23 1.5 -312.071
-1000.23 1.5 -340.077 -1000.23 1.5 -368.083 -1000.23 1.5 -200.045 -1000.23
1.5 -228.052 -1000.23 1.5 -256.058 -1000.23 1.5 -88.0199 -1000.23 1.5
-116.026 -1000.23 1.5 -144.033 -1000.23 1.5 24.0054 -1000.23 1.5 -4.0009
-1000.23 1.5 -32.0072 -1000.23 1.5 136.031 -1000.23 1.5 108.024 -1000.23
1.5 80.0181 -1000.23 1.5 248.056 -1000.23 1.5 220.05 -1000.23 1.5
[...]
CELL_DATA 27370
FIELD attributes 2
k 1 27370 float
5.37712 3.84396 3.4545 3.28049 3.15495 3.06304 2.99077 2.92717 2.87037 2.821 2.77988
2.7233 2.66429 2.61111 2.56409 2.52218 2.48438 2.45007 2.41898 2.391 2.36609
2.3442 2.32521 2.3088 2.29445 2.28144 2.26899 2.25648 2.24357 2.23027 2.2168
2.20338 2.19015 2.17718 2.16454 2.15226 2.14037 2.12885 2.11772 2.10696 2.09656
2.08651 2.07679 2.06743 2.05831 2.04955 2.04127 2.03176 2.02698 2.01383 5.3771
3.84399 3.4546 3.2807 3.15521 3.06321 2.99067 2.92677 2.86986 2.82056 2.77957
2.72294 2.66407 2.611 2.56403 2.52209 2.48418 2.44973 2.41849 2.39038 2.36539
2.34348 2.32456 2.30835 2.29428 2.28158 2.26937 2.25695 2.244 2.2306 2.21703
2.20353 2.19024 2.17723 2.16455 2.15225 2.14033 2.12881 2.11766 2.10689 2.09648
2.08643 2.0767 2.06733 2.05821 2.04944 2.04116 2.03164 2.02686 2.0137 5.3771
3.84405 3.45482 3.28108 3.15574 3.06363 2.9905 2.92592 2.86877 2.8196 2.77888
2.72214 2.66362 2.6109 2.56411 2.52216 2.48409 2.44938 2.41785 2.38946 2.36426
2.34223 2.32344 2.30758 2.29406 2.28195 2.27017 2.2579 2.24483 2.2312 2.21741
2.20376 2.19035 2.17726 2.16452 2.15219 2.14025 2.1287 2.11755 2.10678 2.09638
2.08633 2.0766 2.06724 2.05812 2.04936 2.04108 2.03156 2.02678 2.01363 5.37711
3.84416 3.45515 3.28173 3.15666 3.06438 2.99022 2.92457 2.86717 2.81834 2.77803
2.72119 2.66303 2.61067 2.56404 2.52197 2.48359 2.44845 2.41648 2.3877 2.36221
2.34014 2.32149 2.3063 2.29377 2.28269 2.27166 2.25961 2.24627 2.23221 2.21808
2.20419 2.1906 2.17736 2.16452 2.15211 2.14011 2.12852 2.11733 2.10653 2.0961
2.08604 2.0763 2.06692 2.05779 2.04901 2.04072 2.03119 2.02641 2.01323 5.37712
3.8443 3.45559 3.28271 3.15839 3.06598 2.98981 2.92226 2.86467 2.81651 2.77702
2.72048 2.66319 2.61151 2.56511 2.52282 2.48387 2.44798 2.41523 2.38575 2.35969
2.3374 2.31894 2.30437 2.29313 2.28352 2.27368 2.26195 2.24815 2.23344 2.21883
2.20464 2.19085 2.17748 2.16456 2.15209 2.14006 2.12846 2.11727 2.10647 2.09604
2.08598 2.07625 2.06688 2.05775 2.04897 2.04069 2.03114 2.02636 2.01319 5.37713
3.84446 3.45608 3.28386 3.16082 3.06908 2.98997 2.91984 2.86233 2.81518 2.77652
2.72074 2.66463 2.61388 2.56785 2.52531 2.48564 2.44881 2.4151 2.38468 2.35786
2.33487 2.31678 2.304 2.29424 2.2861 2.27744 2.2658 2.2512 2.23563 2.22045
2.20586 2.19179 2.17822 2.16516 2.15261 2.14052 2.12887 2.11765 2.10683 2.09639
2.08632 2.07657 2.0672 2.05805 2.04928 2.04097 2.03142 2.02663 2.01344 5.37712
3.8445 3.45626 3.28513 3.16405 3.07419 2.98628 2.91317 2.85829 2.81456 2.77812
2.72653 2.67287 2.62332 2.57729 2.53369 2.49239 2.45395 2.41902 2.38786 2.36092
2.33864 2.32157 2.31375 2.31063 2.30618 2.29778 2.28337 2.26537 2.24745 2.23083
2.21518 2.20021 2.18587 2.17217 2.15907 2.14651 2.13445 2.12286 2.11171 2.10097
2.09062 2.08063 2.07102 2.06167 2.05268 2.04421 2.03441 2.02954 2.01606 5.37716
3.84416 3.45412 3.29014 3.06784 2.91989 2.92766 2.89084 2.84151 2.8017 2.76283
2.72614 2.69079 2.65527 2.61845 2.58029 2.54185 2.50526 2.47194 2.44242 2.41708
2.3972 2.39239 2.354 2.61567 2.55803 2.46367 2.39857 2.3519 2.31737 2.29011
2.26678 2.24583 2.22672 2.20915 2.19284 2.17759 2.16323 2.14966 2.1368 2.12455
2.11289 2.10172 2.09106 2.08077 2.07093 2.06169 2.05106 2.04579 2.03125 5.37719
3.8442 3.45447 3.29204 3.07474 2.87256 2.95996 2.8157 2.71901 2.57668 2.48394
2.41954 2.37319 2.33771 2.30824 2.28249 2.2595 2.23874 2.21976 2.20224 2.18594
2.17069 2.15635 2.14281 2.13 2.1178 2.10621 2.09508 2.08445 2.07455 2.06312
2.05753 2.04191 5.3772 3.8444 3.45516 3.29377 3.07893 2.89108 2.97095 2.81903
2.72147 2.5781 2.48458 2.41918 2.37194 2.33586 2.30595 2.27983 2.25656 2.23557
2.2164 2.1987 2.18226 2.1669 2.15248 2.13887 2.126 2.11377 2.10216 2.09101
2.08036 2.07048 2.05899 2.05346 2.03789 5.37721 3.84457 3.45568 3.29496 3.08107
2.89533 2.96479 2.81765 2.72068 2.57882 2.48603 2.42031 2.37243 2.33587 2.30566
2.27932 2.25589 2.2348 2.21557 2.19782 2.18134 2.16594 2.15147 2.13782 2.1249
2.11261 2.10094 2.08973 2.07901 2.06907 2.05746 2.05189 2.03607 5.37721 3.84466
3.45595 3.2955 3.08167 2.89609 2.95836 2.81665 2.72083 2.58005 2.48752 2.42145
2.373 2.33594 2.30535 2.27873 2.25508 2.23382 2.21449 2.19673 2.18026 2.16489
2.15049 2.13693 2.12411 2.11193 2.10037 2.08927 2.07867 2.06883 2.05736 2.05186
2.03641 5.37721 3.84467 3.45597 3.29549 3.08137 2.89499 2.9512 2.81467 2.71934
2.57978 2.48814 2.42253 2.37424 2.33719 2.30653 2.27977 2.25592 2.23443 2.21483
2.1968 2.18006 2.16441 2.14973 2.1359 2.12284 2.11043 2.09866 2.08736 2.07655
2.06657 2.05485 2.04929 2.03329 5.3772 3.84461 3.45579 3.29509 3.08044 2.89278
2.94023 2.80939 2.71274 2.57368 2.48242 2.41691 2.36852 2.33135 2.30066 2.27398
2.25031 2.22909 2.20982 2.19214 2.17579 2.16056 2.14629 2.13286 2.12017 2.10811
2.09666 2.08567 2.07516 2.0654 2.054 2.04851 2.03319 5.37713 3.8445 3.45549
3.29443 3.07912 2.88985 2.92665 2.80067 2.70369 2.56836 2.48001 2.41609 2.36835
2.33122 2.3002 2.27297 2.24867 2.22678 2.20688 2.18857 2.17165 2.15593 2.14122
2.1274 2.11435 2.10199 2.09029 2.07908 2.06835 2.05849 2.04683 2.04137 2.02543
5.37706 3.84435 3.45508 3.29359 3.07753 2.88641 2.96419 2.84559 2.76256 2.62164
2.52631 2.45772 2.40708 2.36801 2.33557 2.30726 2.28208 2.25944 2.23885 2.21992
2.20239 2.18605 2.17075 2.15635 2.14275 2.12982 2.11756 2.10579 2.09453 2.0841
2.0719 2.06601 2.04957 5.37706 3.84418 3.45462 3.29267 3.07584 2.88268 1.09742
3.01806 2.77751 2.67162 2.53279 2.44171 2.37482 2.32418 2.28453 2.25147 2.22269
2.19726 2.17455 2.15404 2.13533 2.11814 2.10225 2.08746 2.07363 2.06064 2.04838
2.0368 2.02575 2.01518 2.00559 1.99399 1.98894 1.97322 5.37704 3.84407 3.4542
3.2918 3.07422 2.87898 2.5919 2.56586 2.43993 2.30326 2.21908 2.15802 2.11171
2.07553 2.04576 2.02034 1.99821 1.97876 1.96146 1.9459 1.93182 1.91898 1.9072
1.89633 1.88625 1.87685 1.86807 1.85981 1.85191 1.845 1.83626 1.83291 1.82163
5.37703 3.84394 3.45383 3.29102 3.07281 2.87564 2.03677 2.12571 2.10758 2.07603
2.05731 2.04341 2.03368 2.02684 2.02104 2.01556 2.01008 2.00488 2.00005 1.99552
1.99123 1.98709 1.98303 1.97902 1.97506 1.9711 1.9672 1.96319 1.95939 1.95532
1.95116 1.94845 1.94171 5.37706 3.84384 3.45357 3.29054 3.07183 2.87301 4.02765
3.53064 3.30548 3.15253 3.04264 2.96065 2.89732 2.84658 2.80415 2.76795 2.71429
2.66479 2.62193 2.58475 2.55198 2.52264 2.49599 2.47153 2.44888 2.42776 2.40799
2.38933 2.37173 2.3554 2.33783 2.32746 2.30383 5.37706 3.84382 3.45347 3.29036
3.07138 2.87152 0.325202 2.09921 2.50091 2.4413 2.36327 2.31622 2.28227 2.25808
2.24115 2.22802 2.21666 2.20635 2.1967 2.18757 2.17883 2.17037 2.16214 2.15408
2.14614 2.13832 2.13058 2.12298 2.11538 2.10805 2.10073 2.09285 2.08813 2.07683
5.37707 3.84384 3.45352 3.29045 3.0716 2.87141 2.47769 2.51386 2.40515 2.28918
2.22413 2.17789 2.14366 2.11778 2.09667 2.07849 2.06255 2.04841 2.03569 2.0241
2.01345 2.00356 1.99433 1.98564 1.97744 1.96965 1.96225 1.95513 1.94835 1.94199
1.93474 1.93117 1.92133 5.37707 3.84393 3.45372 3.29084 3.07238 2.87268 3.12761
2.84945 2.78226 2.65915 2.56244 2.48801 2.43164 2.38778 2.35144 2.31993 2.29207
2.26718 2.24472 2.22424 2.20545 2.1881 2.17197 2.15691 2.14277 2.12944 2.11687
2.10488 2.09354 2.083 2.07109 2.0651 2.04873 5.37708 3.84403 3.45405 3.29147
3.07362 2.8752 2.70632 2.84967 2.786 2.6728 2.58369 2.51599 2.46537 2.42657
2.39471 2.36703 2.3424 2.3203 2.30023 2.28181 2.26476 2.24886 2.23394 2.21985
2.20651 2.1938 2.1817 2.17005 2.15896 2.14849 2.1368 2.13044 2.1145 5.37708
3.84417 3.45445 3.29226 3.07515 2.87863 2.73945 2.65736 2.55593 2.43673 2.36671
2.31728 2.28061 2.2524 2.22898 2.20844 2.19005 2.17344 2.15827 2.14425 2.13119
2.11896 2.10744 2.09654 2.0862 2.07632 2.06691 2.05782 2.04917 2.04098 2.03168
2.02696 2.01397 5.37715 3.84432 3.45484 3.29309 3.07677 2.8825 2.83947 2.73632
2.62259 2.48546 2.40015 2.33877 2.2925 2.25633 2.22622 2.2 2.1768 2.15607
2.13732 2.12017 2.10437 2.08971 2.07606 2.06326 2.05123 2.03986 2.02912 2.01886
2.00906 2.00011 1.98947 1.98463 1.97039 5.37722 3.84443 3.45518 3.29385 3.07831
2.88642 2.92258 2.7959 2.69461 2.55554 2.46561 2.40107 2.35307 2.31594 2.28513
2.25824 2.23432 2.21281 2.19327 2.17531 2.15869 2.14321 2.12871 2.11507 2.1022
2.08998 2.0784 2.0673 2.05669 2.04691 2.03537 2.02999 2.01431 5.37723 3.84451
3.45542 3.2944 3.07955 2.89 2.94336 2.80624 2.70799 2.5686 2.478 2.41338
2.36578 2.32917 2.29881 2.27229 2.24868 2.22744 2.20809 2.19029 2.17378 2.15838
2.14395 2.13036 2.11752 2.10532 2.09374 2.08264 2.07203 2.06221 2.05072 2.04524
2.02966 5.37723 3.84453 3.4555 3.2946 3.08022 2.89283 2.95314 2.8114 2.71435
2.57436 2.48287 2.41769 2.36983 2.33311 2.30272 2.27621 2.25261 2.23138 2.21205
2.19425 2.17775 2.16235 2.1479 2.1343 2.12144 2.10922 2.09762 2.08649 2.07586
2.06601 2.05449 2.04899 2.03329 5.37723 3.84447 3.45534 3.29429 3.08002 2.89428
2.95826 2.81332 2.71528 2.57414 2.48224 2.41726 2.36989 2.33367 2.30371 2.27757
2.25429 2.23334 2.21424 2.19663 2.18028 2.16499 2.15064 2.13711 2.12431 2.11214
2.1006 2.08951 2.07893 2.0691 2.05766 2.05215 2.03662 5.37721 3.84433 3.45493
3.29333 3.07824 2.89299 2.96339 2.81547 2.71697 2.57429 2.48162 2.41691 2.37023
2.33455 2.30493 2.27902 2.2559 2.23505 2.216 2.19841 2.18205 2.16674 2.15235
2.13878 2.12593 2.11372 2.10212 2.09098 2.08035 2.07048 2.059 2.05347 2.03783
5.3772 3.84415 3.45433 3.29179 3.07441 2.88513 2.9636 2.81187 2.71414 2.57262
2.48073 2.417 2.37118 2.33611 2.30695 2.28143 2.25865 2.23806 2.21923 2.20184
2.18567 2.17053 2.15629 2.14285 2.13012 2.11801 2.10651 2.09546 2.08493 2.07511
2.06378 2.05823 2.04279 5.37718 3.84415 3.45407 3.29006 3.0677 2.83653 2.70618
2.76958 2.77271 2.75808 2.73655 2.71295 2.68812 2.66059 2.62862 2.59195 2.55164
2.51157 2.47442 2.44188 2.41367 2.39007 2.36893 2.65927 2.60877 2.55187 2.45878
2.3946 2.34861 2.3146 2.28777 2.26477 2.24412 2.22525 2.20786 2.19172 2.1766
2.16236 2.14891 2.13614 2.12398 2.11239 2.10129 2.09069 2.08045 2.07066 2.06148
2.0509 2.04565 2.03113 5.37713 3.84452 3.45629 3.28519 3.16419 3.07456 2.98712
2.91471 2.86091 2.81857 2.78329 2.73829 2.68741 2.63874 2.59157 2.5445 2.49844
2.45526 2.41649 2.38278 2.35466 2.33214 2.31531 2.3079 2.30543 2.30158 2.29373
2.27982 2.26232 2.24483 2.22858 2.21324 2.19853 2.18442 2.17091 2.15796 2.14553
2.1336 2.12212 2.11108 2.10043 2.09018 2.08027 2.07074 2.06147 2.05255 2.04415
2.03444 2.0296 2.01624 5.37714 3.8445 3.45617 3.28404 3.16119 3.06965 2.99094
2.92142 2.86466 2.81853 2.78069 2.73013 2.67616 2.62615 2.57949 2.53494 2.49223
2.45208 2.4154 2.38281 2.35466 2.33115 2.31291 2.30026 2.29083 2.28313 2.27495
2.26371 2.24949 2.23428 2.21939 2.20509 2.19125 2.17789 2.16501 2.15261 2.14066
2.12914 2.11803 2.1073 2.09695 2.08696 2.07729 2.06798 2.0589 2.05019 2.04192
2.03244 2.02766 2.01452 5.37713 3.84435 3.45573 3.28299 3.15887 3.06675 2.99098
2.92401 2.86712 2.81988 2.78103 2.72902 2.67337 2.62216 2.57515 2.53131 2.48998
2.45142 2.41623 2.38483 2.35751 2.33443 2.31578 2.30116 2.29008 2.28078 2.27128
2.25988 2.2464 2.232 2.21767 2.20373 2.19016 2.17698 2.16423 2.15192 2.14002
2.12854 2.11745 2.10674 2.0964 2.08642 2.07675 2.06745 2.05838 2.04967 2.04143
2.03196 2.02719 2.01409 5.37712 3.84422 3.45533 3.28207 3.15724 3.06526 2.99151
2.92641 2.86968 2.82162 2.78187 2.72911 2.67228 2.6202 2.57301 2.52962 2.48932
2.45202 2.41798 2.38747 2.36071 2.33786 2.31875 2.3034 2.29092 2.28002 2.26925
2.25747 2.24443 2.23065 2.2168 2.20314 2.18978 2.17674 2.16408 2.15182 2.13996
2.1285 2.11743 2.10673 2.09639 2.08641 2.07674 2.06744 2.05837 2.04966 2.04142
2.03195 2.02719 2.01407 5.37711 3.84412 3.45502 3.28148 3.15638 3.06459 2.99188
2.92784 2.8713 2.82282 2.78257 2.72964 2.6722 2.61964 2.57231 2.52923 2.4895
2.4529 2.41954 2.38956 2.36315 2.34034 2.32103 2.30494 2.29141 2.27942 2.26786
2.25584 2.24305 2.22969 2.21616 2.20275 2.18956 2.17666 2.1641 2.15192 2.14012
2.12871 2.11767 2.107 2.09668 2.08671 2.07706 2.06777 2.05871 2.05001 2.04178
2.03233 2.02757 2.01448 5.37711 3.84406 3.45482 3.28112 3.15589 3.06423 2.99211
2.92872 2.8724 2.82373 2.78313 2.73013 2.67222 2.61925 2.57176 2.52874 2.48937
2.45324 2.42033 2.39075 2.36458 2.34184 2.32238 2.3059 2.29176 2.27913 2.26709
2.25489 2.24218 2.22904 2.21571 2.20245 2.18937 2.17655 2.16406 2.15191 2.14014
2.12874 2.11771 2.10704 2.09673 2.08676 2.07711 2.06781 2.05875 2.05005 2.04182
2.03237 2.02761 2.01451 5.37713 3.84405 3.45473 3.28093 3.15566 3.06409 2.99223
2.92914 2.87291 2.82415 2.78339 2.73034 2.67224 2.61912 2.57158 2.52866 2.48946
2.45356 2.42087 2.39146 2.36539 2.34266 2.32311 2.30642 2.29198 2.27903 2.26673
2.25443 2.24176 2.22871 2.21549 2.20231 2.18929 2.17652 2.16406 2.15194 2.14018
2.1288 2.11778 2.10712 2.09681 2.08685 2.07721 2.06792 2.05887 2.05017 2.04194
2.0325 2.02774 2.01465 1.1963 0.513136 2.21873 0.375392 1.91065 0.821501 0.392565
1.37325 0.900351 0.216339 0.454179 1.23249 0.537495 1.57473 1.74313 1.31816 0.797493
2.51677 0.697214 5.2945 4.0091 2.62272 0.812417 0.634464 1.19356 1.35619 1.56629
1.47745 0.879122 2.49251 2.5744 2.48405 2.55811 1.38614 0.854692 2.21785 1.05353
1.75691 1.98508 1.58609 1.35945 2.12796 0.895883 0.430088 2.13497 0.781362 1.66417
1.88386 2.20824 1.17959 0.961783 1.37554 0.989721 0.692384 0.391115 0.411979 0.352313
0.789572 0.709888 0.868017 1.42887 0.662239 1.32027 1.41993 1.4526 0.968425 1.79161
1.60641 0.88823 1.24837 0.698085 0.408535 0.89523 0.228512 0.677264 0.446614 1.51507
0.790398 0.399315 0.697269 0.701501 0.977531 0.96903 1.47558 1.16769 0.992852 0.783861
1.44908 2.54563 1.79477 2.49229 1.43163 0.793656 1.40878 1.17856 1.35309 0.430069
0.431586 0.377027 1.47788 1.30807 0.913582 1.19442 1.79212 2.72051 2.67562 1.34938
1.73729 0.971404 1.17975 1.18011 1.24735 1.53345 0.798534 1.23798 2.10261 1.15113
0.735481 0.719451 1.0114 1.56065 0.667542 0.957816 1.69849 1.18011 0.877995 0.379593
1.66009 1.43341 2.37925 2.0174 2.30294 1.82136 1.2891 1.69456 2.0756 0.746507
0.540117 0.796439 1.19426 0.763528 0.609446 0.66515 1.30927 2.35405 2.38949 2.3619
0.773713 0.535841 2.69022 1.73865 1.43481 2.69252 1.0948 0.41042 0.747373 0.788711
1.55599 1.22549 0.897192 1.99979 1.00216 0.705327 0.787724 1.80047 2.14441 1.99741
1.98587 0.641565 0.713685 2.4735 1.26139 1.26477 2.34942 2.3753 1.11525 2.34354
1.26105 2.06896 0.767843 2.20295 0.89032 0.671074 1.03275 2.20775 0.678677 0.730747
2.21222 1.18546 0.63823 1.16639 0.652741 1.50119 1.23752 1.54542 1.00628 2.42786
1.21698 1.78874 0.806364 0.594768 0.232345 0.833502 0.422199 0.161867 0.928138 0.564794
0.420419 0.568012 0.416872 0.89024 0.983848 2.06251 0.443992 0.67274 0.680854 0.649048
1.44203 0.497377 2.20483 0.913966 0.915422 2.08716 1.08921 0.911366 0.848092 0.547499
0.49147 0.344864 0.505545 0.734399 0.512575 1.24688 1.15778 0.206645 0.264255 1.69019
0.251059 0.621835 1.28284 0.877433 0.87464 0.372591 2.39937 0.8114 2.38207 0.770416
0.367036 0.62208 0.531099 0.509904 0.437934 1.36212 2.31875 1.36473 2.24671 0.469269
0.235696 1.36582 1.07882 0.593583 0.989947 0.482588 1.80279 2.45913 2.17416 2.32919
1.48589 0.321267 0.685634 0.802926 2.08324 2.03094 0.890461 1.27881 1.57535 1.97813
1.58498 2.42202 2.43409 1.07248 0.926461 1.37993 1.28652 0.559358 0.622956 2.3631
2.3018 0.764812 0.5087 0.541106 0.365333 0.704368 0.231072 0.594731 0.925701 0.485403
0.712288 1.13285 1.85251 1.96645 0.885668 0.522874 0.832124 1.93126 2.71987 0.992903
2.82077 0.3329 0.502851 0.623836 2.10837 1.21342 0.576153 2.42086 1.37112 0.993398
1.23475 1.19381 2.05154 0.975669 1.4186 1.46038 1.45543 2.41755 1.44962 2.34656
2.58453 1.47845 2.2577 0.636644 0.75951 2.26 2.17074 1.54592 1.23152 1.28779
1.64164 1.54693 2.31979 2.23126 1.15879 2.49688 0.836857 1.22071 0.438923 0.912723
1.25529 0.959785 0.898363 1.1323 0.350032 0.748601 0.842602 2.42156 1.59342 2.15944
1.42761 2.52576 0.979676 2.45553 1.09595 0.922295 0.375371 0.832878 1.02148 0.750163
0.465319 1.54418 0.991427 0.609022 1.7139 1.03783 2.14104 2.16404 1.40926 2.30484
1.37963 1.58929 1.19212 1.95144 1.35175 1.55959 1.33308 2.32351 1.00028 1.65854
0.770574 0.543796 1.23294 0.753419 0.4991 1.10425 0.738953 1.13473 0.636115 0.755931
1.36013 1.33159 1.50837 1.21213 0.530961 1.03065 0.625293 1.00625 1.01742 0.926775
0.863516 1.29078 4.20296 3.26066 2.55175 4.01216 3.04407 2.88122 1.87257 3.49083
4.53047 4.25411 2.38322 3.73725 1.07928 0.946739 0.989447 1.27311 1.02895 0.882324
2.85781 1.5441 1.53494 2.58663 3.05226 1.96075 1.43769 1.06229 1.05863 0.838193
0.922456 1.0209 1.13051 0.48077 0.453871 0.28778 0.404567 2.31912 1.47953 2.38942
0.976801 2.277 0.865547 2.26358 0.898094 1.87622 1.8847 0.957717 1.74989 1.56172
0.763674 1.85676 2.31365 1.82035 2.36519 0.992292 1.38195 1.628 0.958821 1.73625
1.86041 1.21263 1.4357 2.01815 1.14132 2.2101 0.716819 2.03215 0.871675 1.50804
0.707626 0.894227 1.67871 1.82294 1.7318 1.93846 1.64405 0.521848 0.428864 0.496602
1.16723 0.331654 1.08435 1.20098 2.19514 0.85559 1.7235 1.97137 0.747388 0.461221
0.594781 0.536558 0.575937 1.55752 0.777402 1.78648 0.733283 0.929545 0.97625 1.14841
0.922554 1.11673 1.0657 0.774847 0.361767 0.543675 0.54574 0.590242 0.492365 1.88375
1.13889 1.51425 2.01719 0.361097 0.713793 0.673532 0.770284 0.516272 0.396575 0.722739
1.03934 1.57089 1.08658 0.771361 1.0845 1.30032 0.332369 0.229736 0.935123 1.62648
1.48145 0.555386 1.03072 0.518686 0.384679 0.384679 1.31644 2.41227 2.22585 0.966908
0.766568 0.523003 0.821955 0.731824 1.89473 0.964547 0.849645 0.979414 0.517534 0.952547
1.50886 0.637705 0.536217 0.769512 1.68636 0.833236 0.547303 0.670898 0.564984 1.56765
0.733453 0.529716 0.759089 0.875895 0.802575 0.81319 0.675823 0.355253 0.631053 1.47534
0.949552 1.34098 1.60137 1.03981 1.04026 1.2494 0.32593 0.448461 0.35453 0.698984
0.680965 1.39412 1.3918 1.32716 1.49474 0.866165 1.93261 0.482019 1.34474 0.695213
0.896314 1.19814 1.07059 1.00531 1.11887 0.922669 1.15832 1.17726 0.885964 0.909573
1.24092 0.365576 0.180226 0.414946 0.363071 0.346318 0.359032 0.744353 1.35748 0.870513
0.979354 1.39391 1.61545 1.461 2.27577 2.45375 2.39087 2.30807 1.39587 1.33121
1.16445 2.62706 2.51042 1.07169 1.73439 1.30158 1.98458 1.63857 1.04371 0.802739
1.50158 2.60215 2.65245 1.49452 2.57892 1.27884 2.14321 1.63261 2.68952 2.39442
2.5816 1.62537 0.886203 1.35141 1.00666 1.67449 0.99728 1.14368 0.707222 0.884333
1.00644 0.44463 2.9034 1.17915 1.64661 2.73029 1.33315 1.32312 2.22287 2.505
2.49403 1.53784 1.56316 0.616445 0.584437 1.22023 0.877771 1.03147 1.29567 1.30279
0.956463 1.09025 2.15444 1.02386 1.17647 0.723107 1.2901 0.97207 1.30023 0.871947
2.29411 1.58587 2.37026 1.61177 2.82275 1.23554 1.77841 1.80626 1.11264 2.08348
2.44512 2.14616 2.78033 2.43703 2.38774 1.42012 1.13869 1.00125 1.45076 0.857664
1.11369 0.757185 0.996861 1.14736 2.1141 1.0844 0.593177 1.64502 0.94254 0.957551
0.746697 0.983592 1.13146 0.852438 1.03561 0.878931 0.753497 1.08534 0.971232 0.494434
0.6444 2.13041 1.04619 1.27231 1.2042 2.31532 2.03197 1.04944 0.737167 0.613102
1.60406 2.52378 2.50936 1.49255 1.44973 1.09658 0.904711 1.91329 1.47909 1.02153
1.38751 1.21462 0.857653 1.33518 1.90434 1.78911 2.22427 1.57239 1.55302 1.27898
1.21327 1.83864 2.0862 0.673817 0.950993 2.1164 1.63421 1.09929 0.37462 1.96039
0.703123 0.599994 1.19167 0.794562 0.782752 1.14866 0.439556 0.993964 0.917442 0.443567
0.575495 1.95756 0.471223 0.657901 0.736126 1.1893 0.71165 0.48747 1.41418 1.93155
2.76061 2.40696 0.407566 0.75997 1.29439 1.16459 1.50621 0.930897 2.47152 2.06572
2.63097 2.0118 0.833378 1.61335 0.722882 1.52515 1.48234 1.57301 0.872406 1.16123
1.45944 2.43081 0.68205 0.856889 1.41374 1.47214 1.02452 1.13121 1.39434 1.98149
1.12176 2.54095 2.15831 1.94282 2.46921 2.16286 1.60882 1.85352 1.07031 0.558146
0.748495 1.40496 1.20546 2.17987 1.71513 1.17494 1.96384 1.64337 1.06941 1.89617
2.08611 2.45358 1.86099 1.71366 1.61859 1.23762 2.24599 2.27306 2.21449 2.32341
1.284 1.48453 1.04717 2.50327 1.72455 2.36751 0.628739 0.421324 1.26191 1.51295
1.10607 0.763668 2.67106 1.38107 2.36461 2.35461 0.55864 2.07633 1.54026 0.986526
1.39028 1.232 2.02789 1.40123 2.04026 2.04307 2.28993 1.90882 1.66746 0.972354
0.932178 1.15259 0.646737 1.99032 1.11069 0.730903 1.30287 1.29745 1.40195 0.668649