# vtk DataFile Version 2.0
sampleSurface
ASCII
DATASET POLYDATA
POINTS 10295 float
-1324.23 -1350.14 10 -1423.91 -1350.14 10 -1423.91 -1421.2 10 -1324.23 -1421.2
10 -1224.56 -1350.14 10 -1224.56 -1421.2 10 -1124.89 -1350.14 10
-1124.89 -1421.2 10 -1025.21 -1350.14 10 -1025.21 -1421.2 10 -925.54
-1350.14 10 -925.54 -1421.2 10 -825.867 -1350.14 10 -825.867 -1421.2
10 -726.193 -1350.14 10 -726.193 -1421.2 10 -626.52 -1350.14 10
-626.52 -1421.2 10 -526.846 -1350.14 10 -526.846 -1421.2 10 -427.173
-1350.14 10 -427.173 -1421.2 10 -327.499 -1350.14 10 -327.499 -1421.2
10 -227.826 -1350.14 10 -227.826 -1421.2 10 -128.152 -1350.14 10
-128.152 -1421.2 10 -28.4785 -1350.14 10 -28.4785 -1421.2 10 71.195
-1350.14 10 71.195 -1421.2 10 170.869 -1350.14 10 170.869 -1421.2
10 270.542 -1350.14 10 270.542 -1421.2 10 370.216 -1350.14 10
370.216 -1421.2 10 469.889 -1350.14 10 469.889 -1421.2 10 569.563
-1350.14 10 569.563 -1421.2 10 669.237 -1350.14 10 669.237 -1421.2
10 768.91 -1350.14 10 768.91 -1421.2 10 868.584 -1350.14 10
868.584 -1421.2 10 968.257 -1350.14 10 968.257 -1421.2 10 1067.93
-1350.14 10 1067.93 -1421.2 10 1167.6 -1350.14 10 1167.6 -1421.2
10 1267.28 -1350.14 10 1267.28 -1421.2 10 1366.95 -1350.14 10
1366.95 -1421.2 10 1466.63 -1350.14 10 1466.63 -1421.2 10 1566.3
-1350.14 10 1566.3 -1421.2 10 1665.97 -1350.14 10 1665.97 -1421.2
10 1765.65 -1350.14 10 1765.65 -1421.2 10 1865.32 -1350.14 10
1865.32 -1421.2 10 1964.99 -1350.14 10 1964.99 -1421.2 10 2064.67
-1350.14 10 2064.67 -1421.2 10 2164.34 -1350.14 10 2164.34 -1421.2
10 2264.01 -1350.14 10 2264.01 -1421.2 10 2363.69 -1350.14 10
2363.69 -1421.2 10 2463.36 -1350.14 10 2463.36 -1421.2 10 2563.03
-1350.14 10 2563.03 -1421.2 10 2662.71 -1350.14 10 2662.71 -1421.2
10 2762.38 -1350.14 10 2762.38 -1421.2 10 2862.06 -1350.14 10
2862.06 -1421.2 10 2961.73 -1350.14 10 2961.73 -1421.2 10 3061.4
-1350.14 10 3061.4 -1421.2 10 3161.08 -1350.14 10 3161.08 -1421.2
10 3260.75 -1350.14 10 3260.75 -1421.2 10 3360.42 -1350.14 10
3360.42 -1421.2 10 3460.1 -1350.14 10 3460.1 -1421.2 10 3559.77
-1421.2 10 3559.77 -1350.14 10 -1324.23 -1279.08 10 -1423.91 -1279.08
10 -1224.56 -1279.08 10 -1124.89 -1279.08 10 -1025.21 -1279.08 10
-925.54 -1279.08 10 -825.867 -1279.08 10 -726.193 -1279.08 10 -626.52
-1279.08 10 -526.846 -1279.08 10 -427.173 -1279.08 10 -327.499 -1279.08
10 -227.826 -1279.08 10 -128.152 -1279.08 10 -28.4786 -1279.08 10
71.195 -1279.08 10 170.869 -1279.08 10 270.542 -1279.08 10 370.216
-1279.08 10 469.889 -1279.08 10 569.563 -1279.08 10 669.237 -1279.08
10 768.91 -1279.08 10 868.584 -1279.08 10 968.257 -1279.08 10
1067.93 -1279.08 10 1167.6 -1279.08 10 1267.28 -1279.08 10 1366.95
-1279.08 10 1466.63 -1279.08 10 1566.3 -1279.08 10 1665.97 -1279.08
10 1765.65 -1279.08 10 1865.32 -1279.08 10 1964.99 -1279.08 10
2064.67 -1279.08 10 2164.34 -1279.08 10 2264.01 -1279.08 10 2363.69
-1279.08 10 2463.36 -1279.08 10 2563.03 -1279.08 10 2662.71 -1279.08
10 2762.38 -1279.08 10 2862.06 -1279.08 10 2961.73 -1279.08 10
3061.4 -1279.08 10 3161.08 -1279.08 10 3260.75 -1279.08 10 3360.42
-1279.08 10 3460.1 -1279.08 10 3559.77 -1279.08 10 -1324.23 -1208.02
10 -1423.91 -1208.02 10 -1224.56 -1208.02 10 -1124.89 -1208.02 10
-1025.21 -1208.02 10 -925.54 -1208.02 10 -825.867 -1208.02 10 -726.193
-1208.02 10 -626.52 -1208.02 10 -526.846 -1208.02 10 -427.173 -1208.02
10 -327.499 -1208.02 10 -227.826 -1208.02 10 -128.152 -1208.02 10
-28.4787 -1208.02 10 71.1949 -1208.02 10 170.868 -1208.02 10 270.542
-1208.02 10 370.216 -1208.02 10 469.889 -1208.02 10 569.563 -1208.02
10 669.236 -1208.02 10 768.91 -1208.02 10 868.584 -1208.02 10
968.257 -1208.02 10 1067.93 -1208.02 10 1167.6 -1208.02 10 1267.28
-1208.02 10 1366.95 -1208.02 10 1466.63 -1208.02 10 1566.3 -1208.02
10 1665.97 -1208.02 10 1765.65 -1208.02 10 1865.32 -1208.02 10
1964.99 -1208.02 10 2064.67 -1208.02 10 2164.34 -1208.02 10 2264.01
-1208.02 10 2363.69 -1208.02 10 2463.36 -1208.02 10 2563.03 -1208.02
10 2662.71 -1208.02 10 2762.38 -1208.02 10 2862.06 -1208.02 10
2961.73 -1208.02 10 3061.4 -1208.02 10 3161.08 -1208.02 10 3260.75
-1208.02 10 3360.42 -1208.02 10 3460.1 -1208.02 10 3559.77 -1208.02
10 -1324.23 -1136.96 10 -1423.91 -1136.96 10 -1224.56 -1136.96 10
-1124.89 -1136.96 10 -1025.21 -1136.96 10 -925.54 -1136.96 10 -825.867
-1136.96 10 -726.193 -1136.96 10 -626.52 -1136.96 10 -526.846 -1136.96
10 -427.173 -1136.96 10 -327.499 -1136.96 10 -227.826 -1136.96 10
-128.152 -1136.96 10 -28.4788 -1136.96 10 71.1948 -1136.96 10 170.868
-1136.96 10 270.542 -1136.96 10 370.216 -1136.96 10 469.889 -1136.96
10 569.563 -1136.96 10 669.236 -1136.96 10 768.91 -1136.96 10
868.584 -1136.96 10 968.257 -1136.96 10 1067.93 -1136.96 10 1167.6
-1136.96 10 1267.28 -1136.96 10 1366.95 -1136.96 10 1466.63 -1136.96
10 1566.3 -1136.96 10 1665.97 -1136.96 10 1765.65 -1136.96 10
1865.32 -1136.96 10 1964.99 -1136.96 10 2064.67 -1136.96 10 2164.34
-1136.96 10 2264.01 -1136.96 10 2363.69 -1136.96 10 2463.36 -1136.96
10 2563.03 -1136.96 10 2662.71 -1136.96 10 2762.38 -1136.96 10
2862.06 -1136.96 10 2961.73 -1136.96 10 3061.4 -1136.96 10 3161.08
-1136.96 10 3260.75 -1136.96 10 3360.42 -1136.96 10 3460.1 -1136.96
10 3559.77 -1136.96 10 -1324.23 -1065.9 10 -1423.91 -1065.9 10
-1224.56 -1065.9 10 -1124.89 -1065.9 10 -1025.21 -1065.9 10 -925.54
-1065.9 10 -825.867 -1065.9 10 -726.193 -1065.9 10 -626.52 -1065.9
10 -526.846 -1065.9 10 -427.173 -1065.9 10 -327.499 -1065.9 10
-227.826 -1065.9 10 -128.152 -1065.9 10 -28.4789 -1065.9 10 71.1946
-1065.9 10 170.868 -1065.9 10 270.542 -1065.9 10 370.215 -1065.9
10 469.889 -1065.9 10 569.563 -1065.9 10 669.236 -1065.9 10
768.91 -1065.9 10 868.584 -1065.9 10 968.257 -1065.9 10 1067.93
-1065.9 10 1167.6 -1065.9 10 1267.28 -1065.9 10 1366.95 -1065.9
10 1466.63 -1065.9 10 1566.3 -1065.9 10 1665.97 -1065.9 10
1765.65 -1065.9 10 1865.32 -1065.9 10 1964.99 -1065.9 10 2064.67
-1065.9 10 2164.34 -1065.9 10 2264.01 -1065.9 10 2363.69 -1065.9
10 2463.36 -1065.9 10 2563.03 -1065.9 10 2662.71 -1065.9 10
2762.38 -1065.9 10 2862.06 -1065.9 10 2961.73 -1065.9 10 3061.4
-1065.9 10 3161.08 -1065.9 10 3260.75 -1065.9 10 3360.42 -1065.9
10 3460.1 -1065.9 10 3559.77 -1065.9 10 -1324.23 -994.838 10
-1423.91 -994.838 10 -1224.56 -994.838 10 -1124.89 -994.838 10 -1025.21
-994.838 10 -925.54 -994.838 10 -825.867 -994.839 10 -726.193 -994.838
10 -626.52 -994.838 10 -526.846 -994.838 10 -427.173 -994.838 10
-327.499 -994.838 10 -227.826 -994.837 10 -128.152 -994.837 10 -28.479
-994.837 10 71.1944 -994.837 10 170.868 -994.837 10 270.542 -994.837
10 370.215 -994.838 10 469.889 -994.838 10 569.563 -994.838 10
669.237 -994.838 10 768.91 -994.838 10 868.584 -994.839 10 968.257
-994.839 10 1067.93 -994.839 10 1167.6 -994.839 10 1267.28 -994.839
10 1366.95 -994.839 10 1466.63 -994.839 10 1566.3 -994.839 10
1665.97 -994.839 10 1765.65 -994.839 10 1865.32 -994.839 10 1964.99
-994.839 10 2064.67 -994.839 10 2164.34 -994.839 10 2264.01 -994.839
10 2363.69 -994.839 10 2463.36 -994.839 10 2563.03 -994.839 10
2662.71 -994.839 10 2762.38 -994.839 10 2862.06 -994.839 10 2961.73
-994.839 10 3061.4 -994.839 10 3161.08 -994.839 10 3260.75 -994.839
10 3360.42 -994.839 10 3460.1 -994.839 10 3559.77 -994.839 10
-1324.23 -923.778 10 -1423.91 -923.778 10 -1224.56 -923.778 10 -1124.89
-923.778 10 -1025.21 -923.779 10 -925.54 -923.779 10 -825.867 -923.779
10 -875.703 -923.779 10 -726.193 -923.779 10 -776.03 -923.779 10
-626.52 -923.779 10 -676.356 -923.779 10 -526.846 -923.778 10 -576.683
-923.779 10 -427.172 -923.778 10 -477.009 -923.778 10 -327.499 -923.778
10 -377.336 -923.778 10 -227.826 -923.777 10 -277.662 -923.778 10
-128.152 -923.776 10 -177.989 -923.777 10 -28.4791 -923.776 10 -78.3158
-923.776 10 71.1943 -923.776 10 21.3576 -923.776 10 170.868 -923.776
10 121.031 -923.776 10 270.542 -923.777 10 220.705 -923.777 10
370.215 -923.778 10 320.379 -923.778 10 469.889 -923.778 10 420.052
-923.778 10 569.563 -923.778 10 519.726 -923.778 10 669.237 -923.779
10 619.4 -923.779 10 768.91 -923.779 10 719.073 -923.779 10
868.584 -923.779 10 818.747 -923.779 10 968.257 -923.779 10 1067.93
-923.779 10 1167.6 -923.779 10 1267.28 -923.779 10 1366.95 -923.779
10 1466.63 -923.779 10 1566.3 -923.779 10 1665.97 -923.779 10
1765.65 -923.779 10 1865.32 -923.779 10 1964.99 -923.779 10 2064.67
-923.779 10 2164.34 -923.779 10 2264.01 -923.779 10 2363.69 -923.779
10 2463.36 -923.779 10 2563.03 -923.779 10 2662.71 -923.779 10
2762.38 -923.779 10 2862.06 -923.779 10 2961.73 -923.779 10 3061.4
-923.779 10 3161.08 -923.779 10 3260.75 -923.779 10 3360.42 -923.779
10 3460.1 -923.779 10 3559.77 -923.779 10 -1324.23 -852.718 10
-1423.91 -852.718 10 -1224.56 -852.718 10 -1124.89 -852.719 10 -1025.21
-852.719 10 -925.54 -888.249 10 -925.54 -852.719 10 -875.703 -888.249
10 -776.03 -888.249 10 -825.867 -888.249 10 -676.356 -888.249 10
-726.193 -888.249 10 -576.683 -888.249 10 -626.52 -888.249 10 -477.009
-888.249 10 -526.846 -888.249 10 -377.336 -888.249 10 -427.172 -888.249
10 -277.662 -888.249 10 -327.499 -888.249 10 -177.989 -888.249 10
-227.825 -888.249 10 -78.3152 -888.248 10 -128.152 -888.248 10 21.3583
-888.248 10 -28.4785 -888.248 10 121.032 -888.248 10 71.195 -888.248
10 220.706 -888.249 10 170.869 -888.248 10 320.379 -888.249 10
270.543 -888.249 10 420.053 -888.249 10 370.216 -888.249 10 519.726
-888.249 10 469.889 -888.249 10 619.4 -888.249 10 569.563 -888.249
10 719.074 -888.249 10 669.237 -888.249 10 818.747 -888.249 10
768.91 -888.249 10 968.257 -852.719 10 918.421 -852.719 10 868.584
-852.719 10 868.584 -888.249 10 1067.93 -852.719 10 1167.6 -852.719
10 1267.28 -852.719 10 1366.95 -852.719 10 1466.62 -852.719 10
1566.3 -852.719 10 1665.97 -852.719 10 1765.65 -852.719 10 1865.32
-852.719 10 1964.99 -852.719 10 2064.67 -852.719 10 2164.34 -852.719
10 2264.01 -852.719 10 2363.69 -852.719 10 2463.36 -852.719 10
2563.03 -852.719 10 2662.71 -852.719 10 2762.38 -852.719 10 2862.06
-852.719 10 2961.73 -852.719 10 3061.4 -852.719 10 3161.08 -852.719
10 3260.75 -852.719 10 3360.42 -852.719 10 3460.1 -852.719 10
[...]
CELL_DATA 9650
FIELD attributes 2
k 1 9650 float
4.30881 2.91539 2.70411 2.656 2.62177 2.5834 2.544 2.50655 2.47106 2.43724 2.4052
2.37523 2.34719 2.31986 2.29394 2.2696 2.2468 2.22539 2.20524 2.18626 2.16836
2.15151 2.13571 2.12098 2.10731 2.09472 2.08314 2.07248 2.06256 2.05321 2.04428
2.03566 2.02728 2.01912 2.01115 2.00335 1.99573 1.98828 1.98099 1.97388 1.96693
1.96014 1.95351 1.94705 1.94074 1.93456 1.92863 1.92248 1.91767 1.90849 4.30879
2.91538 2.7041 2.65599 2.62177 2.58346 2.54412 2.50668 2.47115 2.43724 2.40514
2.37513 2.34707 2.31976 2.29386 2.26955 2.24676 2.22535 2.20519 2.18619 2.16826
2.15137 2.13553 2.12075 2.10706 2.09447 2.08292 2.07232 2.06246 2.05317 2.04427
2.03566 2.02729 2.01913 2.01115 2.00335 1.99573 1.98827 1.98098 1.97386 1.9669
1.96011 1.95348 1.94701 1.9407 1.93452 1.92858 1.92243 1.91762 1.90843 4.30879
2.91537 2.70409 2.65598 2.6218 2.58356 2.54436 2.50699 2.47134 2.43726 2.40501
2.37491 2.34681 2.31951 2.29365 2.2694 2.24667 2.2253 2.20515 2.18611 2.16813
2.15117 2.13525 2.1204 2.10666 2.09406 2.08256 2.07206 2.06232 2.05312 2.04428
2.0357 2.02734 2.01918 2.01119 2.00338 1.99574 1.98827 1.98098 1.97385 1.96688
1.96009 1.95345 1.94698 1.94066 1.93449 1.92854 1.92239 1.91758 1.90839 4.30879
2.91537 2.70407 2.65596 2.62183 2.58375 2.54479 2.5075 2.47167 2.43734 2.40492
2.37474 2.34662 2.31934 2.29355 2.26936 2.24667 2.2253 2.20511 2.18599 2.1679
2.15082 2.13477 2.11978 2.10596 2.09337 2.08198 2.07166 2.06212 2.05307 2.04431
2.03576 2.02742 2.01925 2.01125 2.00342 1.99577 1.98828 1.98096 1.97381 1.96683
1.96002 1.95337 1.94689 1.94056 1.93437 1.92842 1.92226 1.91744 1.90825 4.30878
2.91535 2.70404 2.65592 2.62178 2.58398 2.5456 2.50849 2.47231 2.43751 2.40475
2.3744 2.3463 2.31914 2.2935 2.26949 2.24694 2.22562 2.2054 2.1862 2.16796
2.15068 2.13441 2.11927 2.10528 2.09258 2.08124 2.07116 2.06191 2.05307 2.04441
2.03591 2.02757 2.01939 2.01137 2.00352 1.99584 1.98834 1.981 1.97384 1.96686
1.96004 1.95339 1.9469 1.94057 1.93438 1.92843 1.92227 1.91745 1.90825 4.30878
2.91534 2.70403 2.65587 2.62162 2.58396 2.54658 2.51005 2.47371 2.43865 2.40579
2.3754 2.3474 2.32041 2.29496 2.27111 2.24863 2.2273 2.20699 2.18761 2.16918
2.15163 2.13504 2.11962 2.10565 2.09291 2.08155 2.07164 2.06264 2.05397 2.04541
2.03696 2.02864 2.02047 2.01244 2.00457 1.99687 1.98935 1.982 1.97482 1.96782
1.961 1.95433 1.94784 1.9415 1.93531 1.92935 1.92318 1.91835 1.90914 4.30878
2.91535 2.70408 2.65591 2.62159 2.58374 2.54962 2.51367 2.4762 2.44001 2.40661
2.37608 2.3487 2.3224 2.29769 2.27449 2.25245 2.23127 2.21087 2.19124 2.17244
2.15448 2.13769 2.12153 2.10743 2.09533 2.08511 2.07643 2.06822 2.0598 2.05118
2.04255 2.03399 2.02555 2.01725 2.0091 2.00114 1.99336 1.98577 1.97837 1.97116
1.96413 1.95728 1.95061 1.94411 1.93776 1.93166 1.92535 1.92041 1.911 4.3088
2.9154 2.70477 2.65413 2.65783 2.75735 2.67908 2.61663 2.5625 2.51831 2.4816
2.45002 2.42221 2.39729 2.37427 2.35208 2.33001 2.30781 2.28574 2.26424 2.24366
2.22393 2.20237 2.0684 2.12508 2.14837 2.14709 2.139 2.12576 2.1118 2.09804
2.08491 2.07248 2.06073 2.04957 2.03895 2.02884 2.01918 2.00993 2.00106 1.99254
1.98434 1.97644 1.96882 1.96146 1.95433 1.94751 1.94052 1.93507 1.92478 4.3088
2.91542 2.7048 2.6541 2.65523 2.78216 2.65154 2.41815 2.32763 2.28143 2.25155
2.22926 2.21091 2.19487 2.18027 2.16645 2.15209 2.13619 2.11876 2.10047 2.08199
2.06395 2.04698 2.11602 2.17 2.21091 2.20917 2.19689 2.17761 2.15817 2.13952
2.12226 2.10629 2.09151 2.07776 2.06491 2.05286 2.0415 2.03077 2.02058 2.01088
2.00163 1.99278 1.98431 1.97617 1.96833 1.96087 1.95326 1.94734 1.93623 4.30879
2.91541 2.70478 2.65399 2.65509 2.78085 2.65746 2.41661 2.32216 2.2762 2.24797
2.227 2.20972 2.19488 2.18175 2.16932 2.15611 2.1411 2.12458 2.10745 2.09033
2.07359 2.05753 2.12394 2.17308 2.2136 2.21122 2.19802 2.17821 2.15834 2.13933
2.12176 2.10554 2.09054 2.07659 2.06357 2.05137 2.03988 2.02902 2.01872 2.00893
1.99959 1.99067 1.98213 1.97393 1.96604 1.95855 1.9509 1.94495 1.93381 4.30879
2.91539 2.70475 2.65392 2.65505 2.78132 2.66043 2.42112 2.32533 2.27787 2.24869
2.22726 2.20995 2.19564 2.18371 2.17299 2.1609 2.14554 2.12789 2.10963 2.09146
2.07366 2.05643 2.12052 2.17069 2.211 2.20858 2.19553 2.17612 2.15659 2.1378
2.12036 2.10422 2.08926 2.07532 2.06229 2.05007 2.03855 2.02767 2.01734 2.00751
1.99814 1.98917 1.98059 1.97235 1.96441 1.95688 1.94918 1.9432 1.932 4.30879
2.91538 2.70473 2.65391 2.65507 2.78161 2.66169 2.42312 2.32654 2.27793 2.24787
2.22588 2.20844 2.19462 2.18428 2.17658 2.16656 2.15034 2.13087 2.11121 2.09186
2.07286 2.05437 2.11737 2.16887 2.20913 2.20687 2.19413 2.17503 2.15573 2.13708
2.11973 2.10362 2.08867 2.07473 2.0617 2.04947 2.03795 2.02707 2.01675 2.00695
1.99761 1.98868 1.98014 1.97195 1.96406 1.95657 1.94894 1.94299 1.93187 4.30879
2.91537 2.70472 2.65391 2.65507 2.7817 2.66219 2.42385 2.32676 2.2773 2.24638
2.22365 2.20563 2.19177 2.18295 2.18075 2.17494 2.15643 2.13398 2.11267 2.09196
2.07153 2.05172 2.11341 2.16626 2.20638 2.20415 2.1916 2.17278 2.15376 2.13535
2.11821 2.10227 2.08744 2.07358 2.06058 2.04835 2.03681 2.02587 2.01548 2.0056
1.99617 1.98716 1.97853 1.97025 1.96227 1.9547 1.94697 1.94096 1.92971 4.30879
2.91537 2.70472 2.65391 2.65505 2.78161 2.66225 2.42394 2.32643 2.27622 2.24437
2.22054 2.20104 2.18551 2.17462 2.18435 2.18871 2.16375 2.13676 2.11389 2.09174
2.06945 2.04802 2.108 2.16218 2.20192 2.19948 2.18687 2.16823 2.14937 2.1311
2.11405 2.09818 2.08341 2.06962 2.05672 2.0446 2.03318 2.02239 2.01216 2.00243
1.99317 1.98431 1.97584 1.96772 1.95989 1.95246 1.94487 1.93896 1.9279 4.30879
2.91537 2.70473 2.65392 2.65502 2.78138 2.66204 2.42373 2.32581 2.27484 2.24196
2.21656 2.19375 2.17291 2.16559 2.18501 2.21422 2.16737 2.13401 2.11075 2.08754
2.06322 2.04041 2.10549 2.16948 2.20924 2.20745 2.19566 2.17746 2.15895 2.14087
2.1239 2.10799 2.09308 2.07906 2.06585 2.05337 2.04157 2.03038 2.01974 2.00961
1.99994 1.9907 1.98185 1.97337 1.96521 1.95747 1.94958 1.94345 1.932 4.30879
2.91537 2.70474 2.65393 2.65497 2.78105 2.66168 2.42335 2.32502 2.27326 2.23923
2.21209 2.18399 2.14624 2.24409 1.6394 1.99982 2.15204 2.1728 2.1649 2.14033
2.10915 2.08069 2.141 2.17905 2.21762 2.21515 2.2018 2.18188 2.16181 2.14244
2.12444 2.10776 2.09229 2.07788 2.06441 2.05178 2.03988 2.02865 2.01802 2.00791
1.99828 1.98909 1.9803 1.97187 1.96376 1.95607 1.94822 1.94212 1.93071 4.30879
2.91537 2.70475 2.65393 2.65489 2.78069 2.66125 2.42291 2.32419 2.2716 2.23621
2.20729 2.1777 2.08733 2.12923 1.9149 1.96355 2.03876 2.11053 2.13253 2.11388
2.08025 2.05151 2.1024 2.15038 2.19127 2.19045 2.1807 2.16436 2.14722 2.13004
2.1136 2.09796 2.08313 2.06907 2.05575 2.04315 2.0312 2.01986 2.00909 1.99882
1.98903 1.97966 1.9707 1.96211 1.95384 1.94601 1.93801 1.93185 1.92028 4.30879
2.91538 2.70477 2.65392 2.65481 2.78032 2.66084 2.4225 2.32345 2.26997 2.23256
2.20102 2.18923 2.13609 1.98499 2.21755 2.21136 2.1638 2.10773 2.06738 2.0705
2.09109 2.11628 2.10346 2.07774 2.05233 2.0284 2.00652 1.98694 1.96946 1.9537
1.93941 1.92642 1.91454 1.90364 1.89359 1.88427 1.87561 1.86752 1.85993 1.8528
1.84608 1.8397 1.83377 1.82776 1.82317 1.81473 4.30878 2.91536 2.70478 2.65392
2.65472 2.77999 2.66049 2.4222 2.32301 2.26896 2.22852 2.18544 2.16354 2.08824
2.11867 1.79981 1.65941 1.81819 1.79527 1.74399 1.70636 1.5604 1.78449 1.8554
1.89116 1.91566 1.93384 1.9475 1.95815 1.96679 1.97376 1.97933 1.98371 1.98707
1.98959 1.99137 1.99252 1.99314 1.99324 1.993 1.99239 1.99144 1.99023 1.9888
1.9871 1.98526 1.98345 1.97968 4.30877 2.91535 2.70477 2.6539 2.65466 2.77974
2.66024 2.42203 2.32302 2.27 2.23206 2.12493 2.15295 1.70471 1.94361 1.64354
0.947752 1.60959 1.87387 1.99737 2.08869 2.4386 2.33166 2.43589 2.48457 2.5037
2.50414 2.49754 2.48394 2.46859 2.45248 2.43617 2.42001 2.40417 2.38897 2.37383
2.35862 2.34384 2.32965 2.31611 2.30321 2.29089 2.27912 2.26782 2.25706 2.24622
2.23769 2.22149 4.30877 2.91535 2.70476 2.65386 2.6546 2.77956 2.66007 2.42189
2.32301 2.27194 2.24252 1.94911 2.79434 1.65726 0.756354 0.700004 0.855743 1.08302
1.13423 1.54778 1.63159 1.67087 1.69509 1.71095 1.72126 1.7281 1.73281 1.73605
1.73815 1.73939 1.73997 1.74002 1.73976 1.73913 1.73825 1.73718 1.73598 1.73467
1.73328 1.73181 1.73031 1.72876 1.72712 1.72573 1.7229 4.30877 2.91535 2.70475
2.65385 2.65457 2.77948 2.66002 2.42171 2.3224 2.26964 2.23912 1.3837 2.32313
2.13665 1.90492 1.77285 1.70213 1.66707 1.64978 1.79267 1.82358 1.81687 1.80107
1.78403 1.76744 1.75185 1.73759 1.72458 1.71269 1.7018 1.69183 1.68268 1.67427
1.66652 1.65936 1.65272 1.64654 1.64077 1.63536 1.6303 1.6255 1.6211 1.61657
1.61322 1.60716 4.30877 2.91535 2.70475 2.65385 2.65457 2.77956 2.66005 2.42145
2.32145 2.26574 2.22057 2.1728 1.89654 1.89252 2.27083 1.78431 1.75646 1.80074
1.8266 1.8418 2.0338 2.19364 2.23949 2.24589 2.24019 2.22516 2.20564 2.1855
2.16579 2.14691 2.12903 2.11212 2.09613 2.08105 2.06682 2.05336 2.04062 2.02855
2.01707 2.00615 1.99575 1.98581 1.97629 1.96731 1.95818 1.95116 1.93803 4.30878
2.91534 2.70478 2.65386 2.65462 2.77979 2.66021 2.42125 2.32086 2.26406 2.21776
2.15353 2.10637 2.29379 2.15552 2.12777 2.10136 2.09742 2.09647 2.08911 2.0845
2.05501 2.17587 2.23972 2.26361 2.27319 2.27385 2.27097 2.26489 2.25783 2.25032
2.24254 2.23458 2.22654 2.21846 2.21039 2.20233 2.19432 2.18636 2.17846 2.17064
2.1629 2.15524 2.14766 2.14025 2.13258 2.12644 2.11438 4.30878 2.91536 2.70478
2.65388 2.65472 2.78014 2.66047 2.42128 2.3209 2.26469 2.22205 2.18099 2.16416
2.42244 1.29866 2.45638 2.39163 2.38808 2.43694 2.48072 2.5001 2.50259 2.32927
2.13845 2.19562 2.20701 2.20261 2.19185 2.17859 2.16511 2.15213 2.13986 2.12824
2.11725 2.10679 2.09682 2.08729 2.07816 2.06939 2.06095 2.05282 2.04496 2.03736
2.03 2.02287 2.01601 2.00902 2.0035 1.99301 4.30879 2.91538 2.70477 2.6539
2.65482 2.78051 2.66079 2.42148 2.32144 2.26633 2.22691 2.19335 2.16518 2.10653
2.09175 2.20702 2.19874 2.13375 2.06836 2.02321 1.9869 1.95406 1.92371 2.00341
2.08137 2.11189 2.10573 2.08996 2.07114 2.05216 2.03399 2.01702 2.00131 1.98675
1.97321 1.96061 1.94888 1.93792 1.92766 1.91803 1.90897 1.90043 1.89235 1.8847
1.87745 1.87052 1.86403 1.85744 1.85235 1.84299 4.30879 2.91539 2.70477 2.65391
2.65489 2.78083 2.66108 2.42179 2.32226 2.26833 2.23112 2.20035 2.17108 2.13061
2.07276 2.18821 2.24046 2.20165 2.14437 2.09962 2.06461 2.03515 2.00927 2.07105
2.13042 2.1685 2.16433 2.1497 2.13016 2.11059 2.09192 2.07456 2.05848 2.04355
2.02961 2.01657 2.00432 1.99277 1.98186 1.9715 1.96166 1.95228 1.94331 1.93473
1.92651 1.91858 1.91108 1.90339 1.89745 1.88632 4.30879 2.9154 2.70476 2.65393
2.65494 2.78105 2.66126 2.4221 2.3232 2.27049 2.23507 2.20663 2.18137 2.15726
2.14716 2.1859 2.21273 2.19439 2.1579 2.12389 2.09466 2.06898 2.04588 2.10601
2.15576 2.19517 2.19197 2.17853 2.1597 2.14074 2.12244 2.10535 2.08942 2.07454
2.06061 2.04753 2.0352 2.02356 2.01253 2.00205 1.99209 1.98258 1.9735 1.96481
1.95648 1.94846 1.94086 1.93309 1.92707 1.9158 4.30879 2.9154 2.70477 2.65393
2.65496 2.78109 2.66118 2.4222 2.32405 2.27266 2.23889 2.2126 2.19077 2.17399
2.16913 2.18248 2.19209 2.18026 2.15469 2.1274 2.10193 2.07857 2.05699 2.11712
2.16435 2.20413 2.20151 2.18853 2.16949 2.15023 2.13164 2.11433 2.09826 2.08334
2.06943 2.05642 2.04421 2.03271 2.02183 2.01153 2.00173 1.99239 1.98347 1.97492
1.96673 1.95883 1.95133 1.94367 1.93772 1.92656 4.3088 2.91541 2.70479 2.65394
2.65496 2.7809 2.66068 2.42188 2.32467 2.27468 2.24247 2.21789 2.19811 2.18377
2.17699 2.17815 2.17844 2.16783 2.1479 2.12516 2.10265 2.08126 2.06102 2.12228
2.16932 2.20918 2.20651 2.19326 2.17391 2.15448 2.13584 2.11856 2.10257 2.08775
2.07393 2.061 2.04885 2.03739 2.02655 2.01625 2.00645 1.99709 1.98814 1.97956
1.97133 1.96339 1.95586 1.94816 1.94217 1.93095 4.3088 2.91543 2.70482 2.654
2.65502 2.78044 2.65921 2.42013 2.32429 2.27614 2.24555 2.22232 2.20368 2.18949
2.18055 2.17559 2.17003 2.15871 2.14163 2.12185 2.1016 2.08186 2.06293 2.12569
2.17294 2.213 2.21042 2.19707 2.17733 2.15755 2.13865 2.12119 2.10506 2.09014
2.07625 2.06327 2.0511 2.03964 2.0288 2.01852 2.00874 1.99942 1.9905 1.98196
1.97377 1.96588 1.95839 1.95074 1.94478 1.93363 4.3088 2.91544 2.70483 2.65411
2.65518 2.78015 2.6556 2.41513 2.32118 2.27511 2.24594 2.22365 2.20541 2.19077
2.17958 2.17078 2.16172 2.14954 2.13373 2.11574 2.09711 2.07868 2.06088 2.12551
2.16991 2.21043 2.20852 2.19612 2.17692 2.15759 2.13906 2.12193 2.1061 2.09144
2.0778 2.06506 2.05309 2.04182 2.03115 2.02102 2.01137 2.00217 1.99335 1.9849
1.97679 1.96896 1.96153 1.95392 1.948 1.93691 4.3088 2.91541 2.70479 2.65414
2.6578 2.77648 2.6003 2.48877 2.4313 2.39195 2.36048 2.33369 2.311 2.29207
2.27627 2.26169 2.24682 2.23004 2.21129 2.19137 2.17128 2.15155 2.12945 2.06852
2.12449 2.14733 2.14599 2.1379 2.12476 2.11092 2.09729 2.08428 2.07198 2.06033
2.04927 2.03873 2.02868 2.01907 2.00987 2.00104 1.99254 1.98437 1.97648 1.96887
1.96152 1.95439 1.94758 1.94059 1.93514 1.92484 4.30879 2.91537 2.7041 2.65591
2.62157 2.58366 2.54942 2.51342 2.4759 2.43972 2.4066 2.37657 2.34985 2.32522
2.30213 2.2803 2.25891 2.23766 2.2166 2.19596 2.17602 2.15702 2.13938 2.12258
2.10798 2.09552 2.0851 2.07633 2.06808 2.05968 2.0511 2.04252 2.03403 2.02565
2.01741 2.00933 2.00143 1.9937 1.98616 1.9788 1.97162 1.96462 1.9578 1.95115
1.94467 1.93833 1.93224 1.92594 1.92101 1.9116 4.30879 2.91535 2.70405 2.65587
2.62161 2.58393 2.54653 2.50999 2.47374 2.43881 2.4062 2.37609 2.34898 2.32299
2.29853 2.27555 2.25363 2.23243 2.21186 2.19195 2.17285 2.15464 2.13748 2.1216
2.10726 2.09423 2.08267 2.07263 2.06354 2.05485 2.04629 2.03786 2.02958 2.02145
2.01347 2.00566 1.998 1.99052 1.98321 1.97607 1.96909 1.96228 1.95564 1.94916
1.94283 1.93664 1.93068 1.92452 1.91969 1.91047 4.30879 2.91536 2.70405 2.65592
2.62178 2.58398 2.54561 2.50855 2.47247 2.43782 2.40536 2.37528 2.34806 2.32173
2.2969 2.27359 2.25151 2.23037 2.20998 2.19037 2.1716 2.15375 2.13696 2.12137
2.10701 2.09401 2.08246 2.07223 2.06289 2.054 2.04533 2.03683 2.02851 2.02036
2.01238 2.00457 1.99693 1.98946 1.98215 1.97502 1.96806 1.96126 1.95463 1.94816
1.94184 1.93566 1.92971 1.92355 1.91874 1.90953 4.30879 2.91537 2.70407 2.65595
2.62183 2.58377 2.54486 2.50763 2.47192 2.43777 2.40564 2.37573 2.34843 2.32188
2.29676 2.27316 2.25088 2.22968 2.2094 2.19 2.1715 2.15396 2.13744 2.12205
2.10787 2.09497 2.08335 2.07287 2.06322 2.05408 2.04528 2.03673 2.02838 2.02023
2.01226 2.00446 1.99683 1.98937 1.98208 1.97496 1.96801 1.96121 1.95458 1.94811
1.94179 1.93561 1.92966 1.9235 1.91868 1.90948 4.30879 2.91537 2.70408 2.65597
2.62181 2.5836 2.54445 2.50716 2.47166 2.43778 2.40582 2.376 2.34867 2.32202
2.29676 2.27302 2.25065 2.22944 2.20923 2.18996 2.17163 2.15426 2.13792 2.12267
2.10858 2.09569 2.08396 2.07329 2.06344 2.05416 2.04528 2.03668 2.02833 2.02018
2.01222 2.00444 1.99683 1.98939 1.98212 1.97501 1.96807 1.9613 1.95468 1.94822
1.94192 1.93575 1.92981 1.92366 1.91885 1.90966 4.30879 2.91538 2.7041 2.65598
2.62178 2.5835 2.54423 2.50689 2.47151 2.43781 2.40601 2.37627 2.34895 2.32224
2.29689 2.27304 2.25057 2.22932 2.20913 2.18993 2.17169 2.15444 2.13821 2.12306
2.10904 2.09617 2.08439 2.0736 2.06362 2.05424 2.04529 2.03666 2.02828 2.02013
2.01217 2.00439 1.99679 1.98936 1.9821 1.975 1.96807 1.96129 1.95468 1.94822
1.94192 1.93575 1.92981 1.92366 1.91886 1.90967 4.30881 2.91538 2.70411 2.656
2.62178 2.58345 2.54412 2.50677 2.47144 2.43784 2.4061 2.37639 2.34907 2.32233
2.29693 2.27303 2.25054 2.22928 2.2091 2.18994 2.17176 2.15457 2.13839 2.12329
2.1093 2.09642 2.08461 2.07377 2.06373 2.05429 2.04531 2.03666 2.02827 2.02012
2.01216 2.00439 1.9968 1.98937 1.98212 1.97502 1.96809 1.96133 1.95472 1.94826
1.94196 1.9358 1.92987 1.92372 1.91892 1.90974 2.10069 2.17956 2.30665 1.88452
2.55857 2.15728 2.22079 2.06606 2.45664 2.35907 1.70598 2.27767 2.11825 2.00469
2.18617 2.16932 2.0511 1.71964 1.52824 1.46605 1.74364 2.13702 2.2191 2.41957
1.78465 2.42141 3.63458 1.88489 0.494955 1.85031 1.52037 2.16161 1.66807 3.13281
1.1554 1.85292 1.8468 1.93301 1.61267 2.186 2.11446 1.8251 0.873961 1.78219
1.97098 2.22156 3.17582 2.28551 1.86732 2.05709 2.14123 2.13137 2.05447 1.94137
2.23584 2.00634 1.83447 1.82969 2.21873 2.30856 1.95712 2.27451 2.55433 2.3092
1.43407 2.13079 1.8953 2.0412 2.10337 2.13816 2.35298 1.76238 2.19258 2.09719
2.32167 1.66419 2.12321 2.40057 1.92984 2.32631 2.31773 1.87894 2.27172 1.56567
2.01167 1.80995 2.12125 1.97197 2.54727 1.9818 2.16836 2.13183 2.12935 3.35464
2.48541 2.28911 2.25012 2.24022 2.28877 2.27612 1.80405 2.36152 1.92079 1.76487
1.92402 1.00312 1.29525 2.31867 2.2259 2.22954 2.49351 2.49555 1.91237 1.91237
1.94558 1.78123 1.73172 1.83669 2.15669 2.0713 2.1279 2.08258 2.26442 1.83979
2.27395 2.25365 2.26547 2.17289 2.3135 2.41391 0.28801 2.44008 2.17966 2.16201
2.21047 2.06494 2.16362 2.86811 3.4018 2.95525 2.11873 2.57704 2.71048 2.31813
2.39983 1.65744 1.73482 2.11167 1.09083 1.40935 1.22593 1.50654 2.11636 2.10397
2.08419 2.21369 2.50651 2.23074 2.17969 2.49635 2.92595 2.13712 1.86831 2.15214
2.14267 2.27177 1.53621 2.27348 1.75356 2.72511 2.66679 1.92273 1.80124 2.12133
3.70071 2.23536 2.46074 2.23112 1.60432 2.73086 1.65656 1.95186 2.04469 1.80024
2.26432 1.86726 1.98301 1.88049 1.83382 1.96076 1.89531 1.38741 1.79423 1.9535
1.55753 2.30283 2.7224 1.66316 1.52645 1.40137 1.81319 1.53142 2.35674 1.63804
1.46574 2.25225 1.57289 1.61973 2.77878 2.0611 2.2566 2.27086 2.63995 1.61985
1.99479 2.22526 1.48707 2.13091 1.94194 1.0998 2.51811 1.14038 1.23233 2.28077
1.48599 1.8282 1.80319 1.5112 2.22242 1.84148 2.04117 1.97736 2.60944 2.66972
2.25725 3.02958 2.21509 2.22884 2.12729 1.91613 2.12128 2.13247 2.05926 1.00073
1.08865 2.33646 1.86302 1.96717 2.54955 1.7823 1.02353 1.32312 1.78427 1.79512
1.89319 1.98342 2.16942 2.2289 1.46274 2.84615 2.50768 2.68315 2.25673 2.44668
1.60627 1.14585 2.04678 2.26763 2.05747 2.02051 2.19528 2.04391 2.15426 1.12828
1.88587 2.60236 1.44416 0.65708 1.81447 1.48598 1.28102 0.452479 0.522622 1.95524
2.4634 2.46558 1.95197 2.37006 2.49242 3.0176 2.59426 2.33885 2.54191 2.09472
1.92093 1.44984 2.19278 2.2227 2.17996 2.15168 2.1526 2.10217 1.62879 1.97682
1.71819 2.07717 1.72274 2.2895 2.7207 2.86533 3.47397 2.62701 2.32603 2.12962
1.47649 1.62101 2.24118 2.17851 2.15427 2.21829 2.36539 1.73197 1.78816 1.8265
1.95809 2.13662 2.09145 1.88256 2.25915 2.25376 2.00421 2.20467 2.03296 2.37068
1.99298 1.62253 2.57356 2.48437 2.19654 1.89563 3.90756 2.31555 2.469 2.41848
1.99786 2.15794 2.15676 0.805264 3.03021 3.60115 2.65256 2.59988 4.45083 1.66339
1.8456 2.01154 2.263 2.21344 2.10694 1.82591 2.42229 2.62441 2.25148 2.30866
2.11324 2.30445 2.82798 3.57997 2.86076 3.28872 2.61392 2.104 1.94769 2.03163
2.13267 1.7915 2.08243 1.81053 2.27892 1.91839 1.39212 1.50464 1.59765 1.50875
1.47878 1.76465 2.26201 1.03215 1.42979 1.54642 1.56986 1.62924 1.39723 1.59412
1.5882 1.5882 1.56871 1.60886 1.56079 2.03843 2.33398 2.28649 2.61703 3.76628
1.77066 1.23893 4.02029 2.80876 3.35014 3.44856 3.46476 3.4571 3.69324 2.25867
3.60192 3.40478 1.91819 1.99345 2.57587 2.11113 2.42736 1.90001 2.86576 2.01439
2.34833 2.04058 2.52491 1.83361 2.91744 2.5952 1.4348 1.7497 1.67811 1.86774
2.65958 1.84161 3.11741 1.16323 1.0489 1.31468 1.03195 1.78504 2.02957 1.78853
2.0466 1.7105 1.72536 2.2317 0.839396 0.650019 1.78561 1.75868 1.87634 1.9635
2.44544 2.39674 1.97483 2.12875 3.66773 2.50293 1.78901 1.48719 3.66918 3.4291
1.48643 2.12698 2.16708 1.82291 2.34915 2.33517 1.4834 1.9186 1.90033 1.42101
1.89789 1.84374 1.63402 1.75642 2.05757 2.03619 0.582557 0.506279 1.89912 1.74307
1.86727 1.54392 1.85037 1.45313 1.8287 1.54078 1.5563 1.85933 2.05073 2.08074
1.94763 1.84217 2.10764 1.45355 1.92031 1.52957 1.30111 1.81517 1.30555 4.06273
3.12757 3.12537 4.16776 0.904125 3.83252 2.62733 1.52232 1.83065 2.38919 1.79407
1.78761 1.68934 1.84135 2.53216 2.16386 1.95447 2.20897 2.10796 2.16095 2.44594
3.90161 3.93554 3.93554 1.68294 1.78653 1.91594 1.87312 2.04176 2.27117 1.68226
0.793345 1.83549 3.44018 2.96325 3.54197 2.59159 2.46476 2.20137 2.74637 0.850726