# vtk DataFile Version 2.0
sampleSurface
ASCII
DATASET POLYDATA
POINTS 28160 float
-1324.23 -1350.14 1.5 -1423.91 -1350.14 1.5 -1423.91 -1421.2 1.5 -1324.23 -1421.2
1.5 -1224.56 -1350.14 1.5 -1224.56 -1421.2 1.5 -1124.89 -1350.14 1.5
-1124.89 -1421.2 1.5 -1025.21 -1350.14 1.5 -1025.21 -1421.2 1.5 -925.54
-1350.14 1.5 -925.54 -1421.2 1.5 -825.867 -1350.14 1.5 -825.867 -1421.2
1.5 -726.193 -1350.14 1.5 -726.193 -1421.2 1.5 -626.52 -1350.14 1.5
-626.52 -1421.2 1.5 -526.846 -1350.14 1.5 -526.846 -1421.2 1.5 -427.173
-1350.14 1.5 -427.173 -1421.2 1.5 -327.499 -1350.14 1.5 -327.499 -1421.2
1.5 -227.826 -1350.14 1.5 -227.826 -1421.2 1.5 -128.152 -1350.14 1.5
-128.152 -1421.2 1.5 -28.4787 -1350.14 1.5 -28.4787 -1421.2 1.5 71.1948
-1350.14 1.5 71.1949 -1421.2 1.5 170.868 -1350.14 1.5 170.868 -1421.2
1.5 270.542 -1350.14 1.5 270.542 -1421.2 1.5 370.216 -1350.14 1.5
370.216 -1421.2 1.5 469.889 -1350.14 1.5 469.889 -1421.2 1.5 569.563
-1350.14 1.5 569.563 -1421.2 1.5 669.236 -1350.14 1.5 669.236 -1421.2
1.5 768.91 -1350.14 1.5 768.91 -1421.2 1.5 868.583 -1350.14 1.5
868.583 -1421.2 1.5 968.257 -1350.14 1.5 968.257 -1421.2 1.5 1067.93
-1350.14 1.5 1067.93 -1421.2 1.5 1167.6 -1350.14 1.5 1167.6 -1421.2
1.5 1267.28 -1350.14 1.5 1267.28 -1421.2 1.5 1366.95 -1350.14 1.5
1366.95 -1421.2 1.5 1466.62 -1350.14 1.5 1466.62 -1421.2 1.5 1566.3
-1350.14 1.5 1566.3 -1421.2 1.5 1665.97 -1350.14 1.5 1665.97 -1421.2
1.5 1765.65 -1350.14 1.5 1765.65 -1421.2 1.5 1865.32 -1350.14 1.5
1865.32 -1421.2 1.5 1964.99 -1350.14 1.5 1964.99 -1421.2 1.5 2064.67
-1350.14 1.5 2064.67 -1421.2 1.5 2164.34 -1350.14 1.5 2164.34 -1421.2
1.5 2264.01 -1350.14 1.5 2264.01 -1421.2 1.5 2363.69 -1350.14 1.5
2363.69 -1421.2 1.5 2463.36 -1350.14 1.5 2463.36 -1421.2 1.5 2563.03
-1350.14 1.5 2563.03 -1421.2 1.5 2662.71 -1350.14 1.5 2662.71 -1421.2
1.5 2762.38 -1350.14 1.5 2762.38 -1421.2 1.5 2862.06 -1350.14 1.5
2862.06 -1421.2 1.5 2961.73 -1350.14 1.5 2961.73 -1421.2 1.5 3061.4
-1350.14 1.5 3061.4 -1421.2 1.5 3161.08 -1350.14 1.5 3161.08 -1421.2
1.5 3260.75 -1350.14 1.5 3260.75 -1421.2 1.5 3360.42 -1350.14 1.5
3360.42 -1421.2 1.5 3460.1 -1350.14 1.5 3460.1 -1421.2 1.5 3559.77
-1421.2 1.5 3559.77 -1350.14 1.5 -1324.23 -1279.08 1.5 -1423.91 -1279.08
1.5 -1224.56 -1279.08 1.5 -1124.89 -1279.08 1.5 -1025.21 -1279.08 1.5
-925.54 -1279.08 1.5 -825.867 -1279.08 1.5 -726.193 -1279.08 1.5 -626.52
-1279.08 1.5 -526.846 -1279.08 1.5 -427.173 -1279.08 1.5 -327.499 -1279.08
1.5 -227.826 -1279.08 1.5 -128.152 -1279.08 1.5 -28.4787 -1279.08 1.5
71.1948 -1279.08 1.5 170.868 -1279.08 1.5 270.542 -1279.08 1.5 370.216
-1279.08 1.5 469.889 -1279.08 1.5 569.563 -1279.08 1.5 669.236 -1279.08
1.5 768.91 -1279.08 1.5 868.583 -1279.08 1.5 968.257 -1279.08 1.5
1067.93 -1279.08 1.5 1167.6 -1279.08 1.5 1267.28 -1279.08 1.5 1366.95
-1279.08 1.5 1466.62 -1279.08 1.5 1566.3 -1279.08 1.5 1665.97 -1279.08
1.5 1765.65 -1279.08 1.5 1865.32 -1279.08 1.5 1964.99 -1279.08 1.5
2064.67 -1279.08 1.5 2164.34 -1279.08 1.5 2264.01 -1279.08 1.5 2363.69
-1279.08 1.5 2463.36 -1279.08 1.5 2563.03 -1279.08 1.5 2662.71 -1279.08
1.5 2762.38 -1279.08 1.5 2862.06 -1279.08 1.5 2961.73 -1279.08 1.5
3061.4 -1279.08 1.5 3161.08 -1279.08 1.5 3260.75 -1279.08 1.5 3360.42
-1279.08 1.5 3460.1 -1279.08 1.5 3559.77 -1279.08 1.5 -1324.23 -1208.02
1.5 -1423.91 -1208.02 1.5 -1224.56 -1208.02 1.5 -1124.89 -1208.02 1.5
-1025.21 -1208.02 1.5 -925.54 -1208.02 1.5 -825.867 -1208.02 1.5 -726.193
-1208.02 1.5 -626.52 -1208.02 1.5 -526.846 -1208.02 1.5 -427.173 -1208.02
1.5 -327.499 -1208.02 1.5 -227.826 -1208.02 1.5 -128.152 -1208.02 1.5
-28.4787 -1208.02 1.5 71.1948 -1208.02 1.5 170.868 -1208.02 1.5 270.542
-1208.02 1.5 370.215 -1208.02 1.5 469.889 -1208.02 1.5 569.563 -1208.02
1.5 669.236 -1208.02 1.5 768.91 -1208.02 1.5 868.583 -1208.02 1.5
968.257 -1208.02 1.5 1067.93 -1208.02 1.5 1167.6 -1208.02 1.5 1267.28
-1208.02 1.5 1366.95 -1208.02 1.5 1466.62 -1208.02 1.5 1566.3 -1208.02
1.5 1665.97 -1208.02 1.5 1765.65 -1208.02 1.5 1865.32 -1208.02 1.5
1964.99 -1208.02 1.5 2064.67 -1208.02 1.5 2164.34 -1208.02 1.5 2264.01
-1208.02 1.5 2363.69 -1208.02 1.5 2463.36 -1208.02 1.5 2563.03 -1208.02
1.5 2662.71 -1208.02 1.5 2762.38 -1208.02 1.5 2862.06 -1208.02 1.5
2961.73 -1208.02 1.5 3061.4 -1208.02 1.5 3161.08 -1208.02 1.5 3260.75
-1208.02 1.5 3360.42 -1208.02 1.5 3460.1 -1208.02 1.5 3559.77 -1208.02
1.5 -1324.23 -1136.96 1.5 -1423.91 -1136.96 1.5 -1224.56 -1136.96 1.5
-1124.89 -1136.96 1.5 -1025.21 -1136.96 1.5 -925.54 -1136.96 1.5 -825.867
-1136.96 1.5 -726.193 -1136.96 1.5 -626.52 -1136.96 1.5 -526.846 -1136.96
1.5 -427.173 -1136.96 1.5 -327.499 -1136.96 1.5 -227.826 -1136.96 1.5
-128.152 -1136.96 1.5 -28.4787 -1136.96 1.5 71.1948 -1136.96 1.5 170.868
-1136.96 1.5 270.542 -1136.96 1.5 370.215 -1136.96 1.5 469.889 -1136.96
1.5 569.563 -1136.96 1.5 669.236 -1136.96 1.5 768.91 -1136.96 1.5
868.583 -1136.96 1.5 968.257 -1136.96 1.5 1067.93 -1136.96 1.5 1167.6
-1136.96 1.5 1267.28 -1136.96 1.5 1366.95 -1136.96 1.5 1466.62 -1136.96
1.5 1566.3 -1136.96 1.5 1665.97 -1136.96 1.5 1765.65 -1136.96 1.5
1865.32 -1136.96 1.5 1964.99 -1136.96 1.5 2064.67 -1136.96 1.5 2164.34
-1136.96 1.5 2264.01 -1136.96 1.5 2363.69 -1136.96 1.5 2463.36 -1136.96
1.5 2563.03 -1136.96 1.5 2662.71 -1136.96 1.5 2762.38 -1136.96 1.5
2862.06 -1136.96 1.5 2961.73 -1136.96 1.5 3061.4 -1136.96 1.5 3161.08
-1136.96 1.5 3260.75 -1136.96 1.5 3360.42 -1136.96 1.5 3460.1 -1136.96
1.5 3559.77 -1136.96 1.5 -1324.23 -1065.9 1.5 -1423.91 -1065.9 1.5
-1224.56 -1065.9 1.5 -1124.89 -1065.9 1.5 -1025.21 -1065.9 1.5 -925.54
-1065.9 1.5 -825.867 -1065.9 1.5 -726.193 -1065.9 1.5 -626.52 -1065.9
1.5 -526.846 -1065.9 1.5 -427.173 -1065.9 1.5 -327.499 -1065.9 1.5
-227.826 -1065.9 1.5 -128.152 -1065.9 1.5 -28.4787 -1065.9 1.5 71.1948
-1065.9 1.5 170.868 -1065.9 1.5 270.542 -1065.9 1.5 370.215 -1065.9
1.5 469.889 -1065.9 1.5 569.563 -1065.9 1.5 669.236 -1065.9 1.5
768.91 -1065.9 1.5 868.583 -1065.9 1.5 968.257 -1065.9 1.5 1067.93
-1065.9 1.5 1167.6 -1065.9 1.5 1267.28 -1065.9 1.5 1366.95 -1065.9
1.5 1466.62 -1065.9 1.5 1566.3 -1065.9 1.5 1665.97 -1065.9 1.5
1765.65 -1065.9 1.5 1865.32 -1065.9 1.5 1964.99 -1065.9 1.5 2064.67
-1065.9 1.5 2164.34 -1065.9 1.5 2264.01 -1065.9 1.5 2363.69 -1065.9
1.5 2463.36 -1065.9 1.5 2563.03 -1065.9 1.5 2662.71 -1065.9 1.5
2762.38 -1065.9 1.5 2862.06 -1065.9 1.5 2961.73 -1065.9 1.5 3061.4
-1065.9 1.5 3161.08 -1065.9 1.5 3260.75 -1065.9 1.5 3360.42 -1065.9
1.5 3460.1 -1065.9 1.5 3559.77 -1065.9 1.5 -1324.23 -994.838 1.5
-1423.91 -994.838 1.5 -1224.56 -994.838 1.5 -1124.89 -994.838 1.5 -1025.21
-994.838 1.5 -925.54 -994.838 1.5 -825.867 -994.838 1.5 -726.193 -994.838
1.5 -626.52 -994.838 1.5 -526.846 -994.838 1.5 -427.173 -994.838 1.5
-327.499 -994.837 1.5 -227.826 -994.837 1.5 -128.152 -994.837 1.5 -28.4787
-994.836 1.5 71.1948 -994.836 1.5 170.868 -994.837 1.5 270.542 -994.837
1.5 370.215 -994.837 1.5 469.889 -994.838 1.5 569.563 -994.838 1.5
669.236 -994.838 1.5 768.91 -994.838 1.5 868.584 -994.838 1.5 968.257
-994.838 1.5 1067.93 -994.838 1.5 1167.6 -994.838 1.5 1267.28 -994.838
1.5 1366.95 -994.838 1.5 1466.62 -994.839 1.5 1566.3 -994.839 1.5
1665.97 -994.839 1.5 1765.65 -994.839 1.5 1865.32 -994.839 1.5 1964.99
-994.839 1.5 2064.67 -994.839 1.5 2164.34 -994.839 1.5 2264.01 -994.839
1.5 2363.69 -994.839 1.5 2463.36 -994.839 1.5 2563.03 -994.839 1.5
2662.71 -994.839 1.5 2762.38 -994.839 1.5 2862.06 -994.839 1.5 2961.73
-994.839 1.5 3061.4 -994.839 1.5 3161.08 -994.839 1.5 3260.75 -994.839
1.5 3360.42 -994.839 1.5 3460.1 -994.839 1.5 3559.77 -994.839 1.5
-1324.23 -923.778 1.5 -1423.91 -923.778 1.5 -1224.56 -923.778 1.5 -1124.89
-923.778 1.5 -1025.21 -923.778 1.5 -925.54 -923.779 1.5 -825.867 -923.779
1.5 -875.703 -923.779 1.5 -726.193 -923.779 1.5 -776.03 -923.779 1.5
-626.52 -923.779 1.5 -676.356 -923.779 1.5 -526.846 -923.778 1.5 -576.683
-923.779 1.5 -427.172 -923.778 1.5 -477.009 -923.778 1.5 -327.499 -923.778
1.5 -377.336 -923.778 1.5 -227.825 -923.778 1.5 -277.662 -923.778 1.5
-128.152 -923.777 1.5 -177.989 -923.777 1.5 -28.4784 -923.777 1.5 -78.3151
-923.777 1.5 71.195 -923.777 1.5 21.3583 -923.777 1.5 170.869 -923.777
1.5 121.032 -923.777 1.5 270.542 -923.777 1.5 220.705 -923.777 1.5
370.216 -923.778 1.5 320.379 -923.778 1.5 469.889 -923.778 1.5 420.053
-923.778 1.5 569.563 -923.778 1.5 519.726 -923.778 1.5 669.237 -923.779
1.5 619.4 -923.778 1.5 768.91 -923.779 1.5 719.073 -923.779 1.5
868.584 -923.779 1.5 818.747 -923.779 1.5 968.257 -923.779 1.5 918.421
-923.779 1.5 1067.93 -923.779 1.5 1167.6 -923.778 1.5 1267.28 -923.778
1.5 1366.95 -923.779 1.5 1466.62 -923.779 1.5 1566.3 -923.779 1.5
1665.97 -923.779 1.5 1765.64 -923.779 1.5 1865.32 -923.779 1.5 1964.99
-923.779 1.5 2064.67 -923.779 1.5 2164.34 -923.779 1.5 2264.01 -923.779
1.5 2363.69 -923.779 1.5 2463.36 -923.779 1.5 2563.03 -923.779 1.5
2662.71 -923.779 1.5 2762.38 -923.779 1.5 2862.06 -923.779 1.5 2961.73
-923.779 1.5 3061.4 -923.779 1.5 3161.08 -923.779 1.5 3260.75 -923.779
1.5 3360.42 -923.779 1.5 3460.1 -923.779 1.5 3559.77 -923.779 1.5
-1324.23 -852.718 1.5 -1423.91 -852.718 1.5 -1224.56 -852.718 1.5 -1124.89
-852.718 1.5 -1025.21 -852.718 1.5 -925.54 -888.249 1.5 -925.54 -852.719
1.5 -875.703 -888.249 1.5 -776.03 -888.249 1.5 -800.948 -888.249 1.5
-825.867 -888.249 1.5 -676.356 -888.249 1.5 -701.275 -888.249 1.5 -726.193
-888.249 1.5 -576.683 -888.249 1.5 -601.601 -888.249 1.5 -626.52 -888.249
1.5 -477.009 -888.249 1.5 -501.928 -888.249 1.5 -526.846 -888.249 1.5
-377.336 -888.249 1.5 -402.254 -888.249 1.5 -427.172 -888.249 1.5 -277.662
-888.249 1.5 -302.58 -888.249 1.5 -327.499 -888.249 1.5 -177.989 -888.249
1.5 -202.907 -888.249 1.5 -227.825 -888.249 1.5 -78.3149 -888.249 1.5
-103.233 -888.249 1.5 -128.152 -888.249 1.5 21.3586 -888.249 1.5 -3.55977
-888.249 1.5 -28.4782 -888.249 1.5 121.032 -888.249 1.5 96.1138 -888.249
1.5 71.1954 -888.249 1.5 220.706 -888.249 1.5 195.787 -888.249 1.5
170.869 -888.249 1.5 320.379 -888.249 1.5 295.461 -888.249 1.5 270.543
[...]
CELL_DATA 27261
FIELD attributes 2
k 1 27261 float
4.71726 3.49769 3.15148 2.98898 2.87393 2.79313 2.70133 2.60382 2.51722 2.445 2.38551
2.33526 2.29136 2.25192 2.21568 2.18182 2.14998 2.1202 2.09268 2.06772 2.04548
2.02604 2.0093 1.995 1.98268 1.97172 1.96142 1.95121 1.94076 1.93002 1.91911
1.90818 1.89735 1.88668 1.87622 1.866 1.85606 1.8464 1.83703 1.82794 1.81913
1.81061 1.80235 1.79438 1.78662 1.7791 1.77214 1.76384 1.75984 1.74864 4.71724
3.49769 3.15156 2.98914 2.87414 2.79326 2.7012 2.60325 2.51649 2.44442 2.38521
2.33525 2.29157 2.25228 2.21606 2.1821 2.15006 2.12003 2.09229 2.06715 2.04482
2.02536 2.0087 1.99457 1.98249 1.9718 1.96172 1.95162 1.94115 1.93033 1.91933
1.90834 1.89745 1.88673 1.87624 1.866 1.85603 1.84635 1.83696 1.82786 1.81905
1.81052 1.80225 1.79427 1.78651 1.77897 1.77201 1.7637 1.75971 1.74849 4.71724
3.49774 3.15172 2.98946 2.87456 2.79358 2.70096 2.60204 2.51492 2.44317 2.38455
2.33518 2.29202 2.25308 2.21695 2.18284 2.15038 2.1198 2.09156 2.06603 2.04346
2.02395 2.00739 1.99357 1.982 1.97186 1.96223 1.95233 1.94183 1.93088 1.91974
1.90864 1.89768 1.8869 1.87636 1.86609 1.85611 1.84641 1.83702 1.82792 1.8191
1.81057 1.8023 1.79433 1.78657 1.77904 1.77207 1.76377 1.75977 1.74856 4.71725
3.49782 3.15198 2.98999 2.87535 2.79424 2.7006 2.60007 2.51255 2.44149 2.38381
2.33531 2.29287 2.25439 2.21835 2.18386 2.15074 2.11937 2.0904 2.06435 2.04147
2.02189 2.00552 1.99227 1.98152 1.97227 1.96332 1.95367 1.94302 1.93175 1.92034
1.90903 1.8979 1.88699 1.87635 1.86599 1.85594 1.8462 1.83676 1.82762 1.81878
1.81023 1.80194 1.79394 1.78617 1.77862 1.77165 1.76333 1.75933 1.74809 4.71726
3.49793 3.15233 2.99075 2.87681 2.79564 2.70019 2.5968 2.50885 2.43909 2.38304
2.336 2.29475 2.25701 2.22103 2.18594 2.15161 2.11886 2.0887 2.0618 2.03843
2.01869 2.00273 1.99004 1.98045 1.97259 1.96479 1.95557 1.9447 1.933 1.92125
1.90973 1.89844 1.88742 1.8767 1.86629 1.85621 1.84644 1.83699 1.82785 1.81901
1.81046 1.80217 1.79418 1.78641 1.77887 1.77189 1.76357 1.75956 1.74833 4.71726
3.49803 3.15265 2.99169 2.87896 2.79826 2.70051 2.59319 2.50508 2.43715 2.38314
2.338 2.29843 2.26182 2.22607 2.19008 2.15414 2.11958 2.08786 2.05979 2.0357
2.01566 2.00005 1.98896 1.98083 1.97433 1.96769 1.95871 1.94731 1.93497 1.92277
1.91095 1.89944 1.88825 1.87739 1.8669 1.85675 1.84693 1.83744 1.82827 1.8194
1.81084 1.80254 1.79454 1.78675 1.77921 1.77221 1.76387 1.75987 1.74861 4.71726
3.49802 3.15264 2.99263 2.88137 2.80322 2.69678 2.58459 2.50049 2.43908 2.39026
2.34872 2.31156 2.27586 2.23923 2.2 2.16015 2.12219 2.0882 2.05899 2.03481
2.01572 2.00094 1.99374 1.99073 1.98742 1.98134 1.9706 1.95674 1.94264 1.92937
1.91676 1.90457 1.8928 1.88146 1.87054 1.86004 1.84991 1.84015 1.83073 1.82165
1.81288 1.8044 1.79624 1.7883 1.7806 1.77349 1.76497 1.76091 1.74945 4.71729
3.49775 3.15035 2.99758 2.7951 2.57073 2.54739 2.52274 2.48215 2.45085 2.42188
2.39539 2.36934 2.34087 2.30733 2.26789 2.2252 2.18424 2.14895 2.12034 2.09773
2.08079 2.07755 2.04692 2.23224 2.18352 2.10984 2.05983 2.02398 1.99734 1.97609
1.95763 1.94082 1.92527 1.91083 1.89734 1.88464 1.87265 1.86127 1.85044 1.84012
1.83027 1.82083 1.81181 1.8031 1.7947 1.78698 1.77777 1.77339 1.76106 4.71731
3.49772 3.15041 2.99876 2.80094 2.52654 2.53378 2.45325 2.35239 2.22449 2.1456
2.09223 2.0542 2.02498 2.0005 1.97891 1.95951 1.94189 1.92572 1.91075 1.89678
1.8837 1.87138 1.85974 1.84871 1.83821 1.82822 1.81865 1.80943 1.80102 1.79098
1.78625 1.77284 4.71732 3.49785 3.15082 3.00005 2.80433 2.54112 2.55208 2.46249
2.35903 2.22886 2.1487 2.09418 2.05515 2.02512 1.99994 1.97774 1.95786 1.93988
1.92341 1.90818 1.89403 1.8808 1.86839 1.85668 1.8456 1.83507 1.82506 1.81548
1.80627 1.79787 1.78781 1.78312 1.76977 4.71732 3.49793 3.1511 3.00076 2.80576
2.54393 2.54373 2.45899 2.35698 2.22881 2.14976 2.0954 2.05606 2.02574 2.00033
1.97794 1.95782 1.93961 1.92296 1.90756 1.89324 1.87985 1.86728 1.85541 1.84419
1.83352 1.82338 1.81368 1.80433 1.79584 1.78561 1.78087 1.76722 4.71732 3.49794
3.15113 3.00084 2.80572 2.54346 2.5327 2.45235 2.35175 2.22509 2.14646 2.09155
2.05134 2.02033 1.99453 1.97192 1.95171 1.93348 1.91688 1.90161 1.88745 1.87422
1.86183 1.85015 1.83911 1.82862 1.81866 1.80913 1.79994 1.79159 1.78152 1.77688
1.76358 4.71732 3.49788 3.15093 3.0004 2.80475 2.5412 2.52211 2.4441 2.34544
2.22216 2.14616 2.09238 2.05214 2.02059 1.9941 1.97075 1.94981 1.93089 1.91366
1.89785 1.88318 1.86951 1.85672 1.8447 1.83335 1.8226 1.8124 1.80266 1.79328
1.7848 1.77452 1.76984 1.75612 4.71729 3.49776 3.15056 2.99958 2.80312 2.53779
2.48539 2.40326 2.30281 2.17997 2.10537 2.05308 2.01424 1.98408 1.95895 1.93686
1.91715 1.89943 1.88333 1.86855 1.85486 1.84212 1.83019 1.81897 1.80837 1.79832
1.78878 1.77968 1.77088 1.76295 1.75331 1.74891 1.73629 4.71727 3.49758 3.15003
2.9985 2.80108 2.53358 2.4473 2.39957 2.31999 2.21938 2.15217 2.10064 2.06143
2.03108 2.00583 1.98359 1.96369 1.94579 1.92951 1.91458 1.9008 1.888 1.87607
1.86486 1.85432 1.84433 1.83488 1.82585 1.81721 1.80926 1.79996 1.79543 1.78279
4.71725 3.49738 3.14941 2.99726 2.79876 2.52883 2.0333 2.65286 2.92178 2.82533
2.70191 2.59143 2.50044 2.42943 2.37431 2.3292 2.2904 2.25619 2.22562 2.198
2.17275 2.14949 2.12793 2.10785 2.08905 2.07137 2.05468 2.03888 2.02388 2.00947
1.99634 1.98132 1.9731 1.95326 4.71723 3.49713 3.14883 2.99603 2.7964 2.52394
3.15773 2.3036 2.15054 1.9951 1.90856 1.84714 1.80313 1.77261 1.75068 1.73422
1.7217 1.71211 1.70467 1.69875 1.69389 1.68982 1.68631 1.68319 1.68033 1.67764
1.6751 1.67255 1.67015 1.66757 1.66493 1.66308 1.6591 4.71721 3.49695 3.14829
2.9949 2.79425 2.51936 3.1742 2.48097 2.35021 2.18595 2.06544 1.97374 1.90539
1.85341 1.81167 1.77681 1.74722 1.72188 1.6999 1.68063 1.66358 1.6484 1.63476
1.62241 1.61118 1.60091 1.59146 1.58276 1.57449 1.56752 1.55851 1.55521 1.54363
4.71713 3.49685 3.14791 2.99409 2.79257 2.51568 1.97074 2.30022 2.17954 2.02983
1.92281 1.84227 1.78218 1.73616 1.69896 1.66774 1.64119 1.61843 1.59873 1.58149
1.56626 1.55267 1.5405 1.52951 1.51953 1.51045 1.50212 1.49451 1.48722 1.48129
1.47327 1.47062 1.46088 4.71707 3.49675 3.14772 2.99377 2.79176 2.5136 1.33261
1.75969 1.70007 1.63973 1.61084 1.59123 1.57873 1.57212 1.56877 1.56705 1.56641
1.56651 1.56698 1.56779 1.56864 1.56952 1.57034 1.57104 1.5716 1.572 1.57228
1.57232 1.57232 1.57197 1.57182 1.57118 1.56973 4.71711 3.4968 3.14781 2.99395
2.79208 2.51371 3.47381 2.91502 2.83684 2.72987 2.61823 2.52773 2.45869 2.40626
2.36422 2.32868 2.29778 2.27046 2.24597 2.22371 2.20328 2.18437 2.16676 2.15026
2.1347 2.11997 2.10599 2.09262 2.0798 2.06787 2.05478 2.04687 2.02931 4.71714
3.49697 3.14822 2.99466 2.79352 2.51601 2.69236 2.52931 2.4675 2.3748 2.31048
2.26183 2.22569 2.19832 2.17592 2.15622 2.13838 2.12203 2.10686 2.09263 2.0792
2.06644 2.05427 2.04261 2.03141 2.02062 2.01023 2.00012 1.99041 1.98113 1.9709
1.96495 1.95089 4.71719 3.49712 3.14873 2.9958 2.7958 2.5202 2.62369 2.50586
2.4035 2.27186 2.18853 2.12929 2.08539 2.0513 2.02296 1.99825 1.97635 1.95678
1.9391 1.92298 1.90814 1.89441 1.88163 1.86966 1.85842 1.84781 1.83777 1.82824
1.81908 1.81081 1.80107 1.79627 1.78338 4.71722 3.49734 3.1494 2.99722 2.79853
2.52554 2.5118 2.49947 2.40323 2.27785 2.1984 2.14148 2.09877 2.06514 2.0368
2.01185 1.98953 1.96939 1.95106 1.93422 1.91866 1.90419 1.89067 1.87796 1.86597
1.85462 1.84387 1.8336 1.82375 1.81478 1.80416 1.79912 1.78498 4.71725 3.49758
3.15012 2.9987 2.80131 2.53123 2.51909 2.42685 2.32887 2.20679 2.13172 2.0787
2.03932 2.00869 1.98314 1.96075 1.94081 1.92287 1.90658 1.89162 1.87778 1.8649
1.85283 1.84148 1.83075 1.82057 1.81091 1.80166 1.79278 1.78469 1.77499 1.77049
1.75757 4.71727 3.49782 3.1508 3.00008 2.80386 2.53662 2.51231 2.41921 2.32271
2.20132 2.1256 2.0721 2.03261 2.002 1.97643 1.95394 1.93384 1.91574 1.89927
1.88414 1.87013 1.85707 1.84486 1.83337 1.82253 1.81224 1.8025 1.7932 1.78424
1.77614 1.76634 1.76188 1.74893 4.71729 3.49799 3.15136 3.00122 2.80596 2.54126
2.52104 2.44313 2.34506 2.22004 2.14155 2.08637 2.04587 2.01457 1.98846 1.96556
1.94512 1.92672 1.90999 1.89462 1.88039 1.86715 1.85474 1.84307 1.83206 1.82161
1.8117 1.80223 1.79311 1.78484 1.77484 1.77027 1.757 4.71731 3.49812 3.15173
3.00196 2.80742 2.54488 2.54094 2.45698 2.35725 2.23011 2.15066 2.09521 2.05484
2.02381 1.99799 1.97536 1.95513 1.93688 1.92024 1.90491 1.89067 1.87738 1.86491
1.85315 1.84204 1.83149 1.82147 1.81188 1.80265 1.79425 1.78416 1.77948 1.76607
4.71731 3.49817 3.15186 3.00226 2.80813 2.54729 2.54788 2.46134 2.36037 2.23195
2.15171 2.09594 2.05551 2.0245 1.99874 1.97616 1.95599 1.93777 1.92117 1.90588
1.89167 1.87839 1.86594 1.8542 1.84311 1.83257 1.82256 1.81298 1.80376 1.79538
1.7853 1.78064 1.76723 4.71731 3.49812 3.15174 3.00203 2.80785 2.54821 2.55171
2.4631 2.36061 2.2309 2.1503 2.09476 2.05476 2.02416 1.99873 1.97643 1.95649
1.9385 1.92207 1.90691 1.89281 1.87964 1.86726 1.85559 1.84454 1.83404 1.82406
1.8145 1.8053 1.79693 1.78688 1.78221 1.76885 4.71731 3.49801 3.15136 3.00111
2.80604 2.54652 2.55615 2.46521 2.36148 2.23022 2.14903 2.09378 2.05439 2.02427
1.99917 1.9771 1.95736 1.9395 1.92316 1.90804 1.89397 1.88081 1.86844 1.85676
1.84571 1.8352 1.82521 1.81565 1.80643 1.79805 1.78801 1.78332 1.76993 4.7173
3.49787 3.15084 2.99961 2.80227 2.539 2.55587 2.4558 2.35453 2.22563 2.14584
2.09177 2.05325 2.02374 1.9991 1.97744 1.95803 1.94044 1.92432 1.90941 1.89553
1.88253 1.8703 1.85874 1.84781 1.8374 1.8275 1.81802 1.8089 1.80056 1.79064
1.78595 1.77271 4.71729 3.49785 3.15067 2.99821 2.79608 2.5046 2.31025 2.37454
2.38098 2.37224 2.35547 2.33476 2.31136 2.28528 2.25647 2.22529 2.1935 2.16295
2.13492 2.10987 2.08785 2.0691 2.0519 2.32639 2.23481 2.18578 2.11134 2.06061
2.02416 1.99709 1.9756 1.95701 1.94016 1.92465 1.91027 1.89685 1.88424 1.87233
1.86104 1.8503 1.84006 1.83027 1.82089 1.81192 1.80327 1.79491 1.78723 1.77807
1.7737 1.76141 4.71725 3.4981 3.1529 2.99308 2.882 2.80395 2.69793 2.58525
2.49985 2.43608 2.3839 2.33827 2.29663 2.25723 2.21888 2.18153 2.14592 2.11298
2.08337 2.05725 2.03497 2.0166 2.0021 1.99494 1.99171 1.98809 1.98159 1.97038
1.9561 1.94167 1.92818 1.91542 1.90314 1.89133 1.87999 1.86909 1.85862 1.84854
1.83883 1.82947 1.82044 1.81174 1.80332 1.79522 1.78734 1.77971 1.77265 1.76422
1.76018 1.74881 4.71726 3.49807 3.15281 2.99196 2.87931 2.79863 2.70098 2.59311
2.50393 2.43435 2.37794 2.32983 2.28708 2.24776 2.21059 2.1751 2.14148 2.11017
2.08161 2.05604 2.03365 2.01464 1.99956 1.9887 1.98055 1.97386 1.96692 1.95762
1.9459 1.9333 1.92092 1.90897 1.8974 1.88618 1.87535 1.8649 1.8548 1.84506
1.83564 1.82654 1.81775 1.80926 1.80103 1.7931 1.78538 1.77791 1.77097 1.7627
1.75872 1.74754 4.71725 3.49795 3.15241 2.99089 2.87695 2.79571 2.70001 2.59593
2.50694 2.43559 2.37756 2.32811 2.28438 2.24459 2.20763 2.17281 2.14011 2.1098
2.08213 2.0573 2.03547 2.01678 2.00138 1.98907 1.97962 1.9717 1.96373 1.9543
1.9432 1.93129 1.91939 1.90776 1.89642 1.88537 1.87465 1.86427 1.85422 1.8445
1.83511 1.82603 1.81724 1.80876 1.80053 1.79261 1.7849 1.77742 1.77049 1.76224
1.75826 1.74711 4.71724 3.49782 3.152 2.99001 2.87531 2.79408 2.69995 2.59866
2.51009 2.43758 2.37813 2.32762 2.28322 2.24315 2.2063 2.172 2.14005 2.11052
2.08354 2.05928 2.03782 2.01931 2.00361 1.99081 1.9803 1.9711 1.96208 1.95229
1.94148 1.93005 1.9185 1.9071 1.89591 1.88497 1.87432 1.86399 1.85398 1.84429
1.83491 1.82584 1.81706 1.80858 1.80036 1.79244 1.78474 1.77726 1.77035 1.7621
1.75813 1.74698 4.71724 3.49773 3.1517 2.9894 2.8744 2.79329 2.69997 2.60023
2.51207 2.43899 2.37875 2.32766 2.28287 2.24262 2.20584 2.17184 2.14032 2.11124
2.08469 2.06077 2.03955 2.02106 2.00524 1.99191 1.98059 1.97054 1.96088 1.95088
1.94026 1.92916 1.9179 1.90671 1.89568 1.88487 1.87433 1.86407 1.85412 1.84447
1.83512 1.82608 1.81732 1.80886 1.80066 1.79274 1.78505 1.77758 1.77067 1.76244
1.75846 1.74733 4.71723 3.49767 3.15151 2.98903 2.87391 2.79286 2.69999 2.6012
2.51341 2.44008 2.37938 2.32786 2.28273 2.24231 2.20552 2.17167 2.14041 2.11164
2.08539 2.0617 2.04064 2.02219 2.00628 1.99266 1.98089 1.97033 1.96027 1.95011
1.93954 1.92861 1.91751 1.90643 1.89548 1.88474 1.87423 1.864 1.85407 1.84443
1.83509 1.82605 1.8173 1.80883 1.80063 1.79272 1.78502 1.77756 1.77065 1.76241
1.75844 1.7473 4.71726 3.49766 3.15142 2.98885 2.87366 2.79267 2.70001 2.60165
2.51404 2.44058 2.37965 2.32793 2.28267 2.24219 2.20542 2.17166 2.14053 2.11191
2.08579 2.06222 2.04122 2.02279 2.0068 1.99303 1.98102 1.97021 1.95995 1.9497
1.93916 1.9283 1.91729 1.90628 1.89539 1.88469 1.87421 1.86401 1.8541 1.84447
1.83515 1.82612 1.81737 1.80892 1.80072 1.79281 1.78512 1.77766 1.77075 1.76253
1.75856 1.74743 2.52402 0.667049 0.490039 1.54433 1.15169 0.495473 1.13116 0.711909
0.715582 1.14923 0.742001 1.32292 0.342895 0.328556 0.840298 0.933373 1.37603 0.453573
0.596781 1.9776 1.61819 1.52583 0.951466 0.978255 0.16376 0.109908 0.653585 0.176346
0.507721 0.225991 1.07073 1.44292 1.58787 1.83864 0.186403 0.389434 0.433457 0.588906
0.411418 0.925401 0.840241 1.10513 1.89434 1.59887 1.05459 0.735427 0.775931 0.905444
0.524431 0.617004 0.265778 0.626397 0.32441 0.176249 0.50602 0.144367 0.970285 0.326733
0.294204 1.42266 0.985897 1.55185 1.91363 1.86693 1.98645 1.93076 0.777231 0.339694
1.23884 1.5348 0.553442 0.703798 1.4993 1.24181 0.902696 1.11233 0.595188 2.04243
1.24602 1.03311 1.07742 0.749074 1.19937 1.50634 1.22884 2.40246 2.47227 1.43806
0.93336 1.43828 1.70905 0.807078 1.21244 1.06997 2.395 0.455348 0.151378 0.727194
0.559553 0.981248 0.378835 0.747672 1.20918 0.152633 0.988645 1.90718 2.00854 2.04192
1.8782 0.233766 0.194314 0.418471 0.305602 0.351305 0.913026 0.851406 1.89038 0.355196
0.812315 1.18601 0.991267 2.01627 1.79682 1.76202 0.639475 0.688385 0.27633 0.655615
0.472833 1.55854 0.857876 0.524322 0.418059 1.5807 1.60817 1.71261 1.38817 1.7509
0.700309 1.25088 1.07759 1.9121 1.33766 0.998356 1.63908 1.01739 1.69068 0.856449
0.54105 1.42967 1.42414 0.715362 0.544239 0.826211 1.03146 0.553594 2.02215 1.80327
0.836683 1.91016 1.88183 1.92271 1.85866 1.64276 2.07876 1.31503 1.82729 0.50203
0.402973 0.462344 1.47208 0.257888 1.4622 0.392144 0.870041 0.691327 0.217114 0.902125
0.511608 0.491749 0.478718 0.605237 0.592803 0.160605 0.500556 0.327472 0.366193 0.331048
0.298574 0.30272 1.51775 1.74449 0.765334 1.1985 1.10506 1.18081 0.790692 0.935662
0.321201 0.549148 0.255677 0.16541 0.252358 0.920273 0.476884 0.6187 0.622334 0.206323
0.621373 0.31176 0.741687 0.9025 0.685308 0.586825 0.9848 0.674599 1.00225 0.489292
1.96693 1.28188 1.81648 1.01811 0.615438 0.551537 1.24536 0.365215 1.31264 0.41344
1.13043 0.566731 0.479292 0.919651 0.433148 0.784939 1.27538 0.989336 1.23939 0.931034
0.679026 0.755377 0.855499 1.0572 0.42455 0.646784 1.56334 0.637118 1.69041 0.775777
2.10844 0.584449 1.13125 0.637109 2.12201 1.69051 1.50073 1.21783 0.419823 1.56317
0.776019 0.844157 0.891085 0.467269 1.33102 1.2722 0.485166 1.22779 1.4011 1.86319
0.414882 0.703271 2.08115 0.966198 0.415086 0.426163 0.435458 0.729419 0.343449 0.764752
1.00422 1.50434 1.58506 0.892993 0.868168 2.15428 1.82208 2.15011 0.971595 2.22903
2.19388 2.21353 2.22688 1.42514 0.801399 0.363644 0.974652 0.962332 0.96244 0.494095
0.175046 1.21553 0.521892 0.700411 0.175583 0.178905 1.84753 1.58573 1.78379 1.66526
1.59933 0.670425 1.33559 1.13077 1.6528 1.42196 1.58895 1.32007 0.61964 0.331427
0.322206 1.13462 0.402033 0.469986 1.02655 1.15324 1.32874 1.65939 1.34897 1.49046
0.685374 1.9796 1.81711 2.087 1.11654 1.16165 1.11845 0.215124 0.407707 0.275165
0.349221 0.588222 1.10179 1.66427 1.66137 0.878409 0.486281 0.599385 1.59551 0.301953
0.367316 1.00404 1.1266 1.57724 1.57724 0.539945 1.25969 1.36129 1.62555 0.695657
0.478204 0.46665 0.358929 0.617074 0.270742 1.63656 0.611482 1.73559 0.416506 0.81333
1.50527 0.20465 1.39054 0.286249 0.378056 0.382243 0.908226 2.03575 2.14479 2.15719
1.55191 1.82125 1.59982 1.8807 1.08437 1.13762 0.776247 0.693598 1.85835 0.848598
1.2407 1.78725 1.26689 0.500604 1.36564 0.380704 0.824626 0.389581 0.834117 0.680394
1.84199 0.720383 0.915262 1.86608 0.948101 0.718779 0.645773 0.643222 0.443327 0.368216
0.550851 0.281529 0.289612 0.199607 0.593448 0.438848 0.288888 0.189332 0.499075 0.146734
0.668938 1.2663 0.524132 1.24142 0.605965 0.549036 0.509656 0.507186 0.859415 0.633639
0.568892 1.33202 1.17181 1.98444 1.79338 1.96265 0.513724 0.61942 0.791097 0.320331
0.513006 0.291187 0.296553 0.409881 0.385009 0.426756 1.60427 1.216 0.381149 0.192648
0.783654 0.477774 0.683363 0.219315 1.48232 0.345026 0.639681 1.67313 2.07371 0.415227
1.05074 1.19321 0.437735 0.498471 1.20541 1.46887 2.74677 2.45052 2.66202 1.22436
1.36482 0.742525 1.6534 2.09422 1.87177 1.9578 0.937715 1.37895 0.814942 0.997754
0.986495 0.302011 0.473145 0.509027 0.972116 1.58398 1.0402 1.13829 1.79083 1.2703
0.54279 0.873083 0.410001 1.59076 0.523738 0.751577 1.6069 1.56945 1.80564 1.08076
1.80322 1.19404 2.04611 1.52807 0.535992 0.821457 0.566777 0.937136 1.24588 1.41505
1.20624 1.69531 0.908203 0.789611 0.575037 0.948219 0.973175 0.375448 0.581385 0.340705
0.441471 0.287213 0.449698 0.778171 2.22152 2.06681 2.22556 1.3419 1.29441 2.37699
2.42857 1.25051 1.42255 1.5252 0.703726 0.865798 0.503623 0.4026 0.593428 0.615914
1.85291 1.21712 0.995041 2.04511 1.92536 1.15994 1.09807 1.13409 0.563871 1.91677
0.723548 1.14131 0.923605 1.10809 0.545268 0.625144 0.896619 1.05579 0.994904 2.24447
1.36064 2.11858 1.0882 0.595692 1.56578 2.45484 2.18643 2.47691 2.20755 1.60082
1.06188 1.34127 2.50362 1.14206 1.18394 2.48537 2.42169 0.927296 2.43641 1.21078
1.94354 1.31781 1.75405 1.59204 1.23974 0.98446 1.92159 1.79055 1.78147 0.410013
0.211539 1.20116 1.22789 1.664 1.60244 1.04841 0.431847 1.72272 3.81278 1.63415
1.50605 1.67888 3.96942 1.09583 1.06365 1.55437 1.33732 1.33891 1.33767 0.791259
1.28945 0.821194 1.42831 2.22108 1.01903 0.631678 0.977246 2.28569 0.93641 1.15842
1.92593 0.787338 0.615623 0.583118 1.03007 1.07251 2.06934 2.28096 2.02805 2.31066
0.77339 0.61624 0.562773 0.893983 0.762294 0.620413 1.05584 0.865031 0.985346 0.899365
1.0324 0.871842 0.980838 0.980838 0.742551 1.49335 0.798287 0.616614 0.774154 0.51447
1.01015 1.20422 1.53139 1.15345 1.25511 1.55926 0.685035 0.436272 0.566808 0.296639
0.186083 0.209731 0.127475 1.14677 1.84528 1.70133 0.899416 1.81947 1.84058 1.99036
0.849713 0.901887 1.89704 2.11534 2.10269 1.77297 0.636173 0.709395 0.913736 0.637345
0.782366 0.469364 1.85251 1.7747 0.560027 0.26613 0.327125 0.866452 1.05372 0.2126
0.159372 0.269884 0.240947 0.373852 0.99992 1.05376 0.687093 0.667541 1.00974 1.05916
0.623622 0.649633 0.553868 0.57558 0.839761 0.530372 0.365623 0.677484 0.901327 0.867415
1.15961 1.03225 0.985932 0.860363 0.720343 0.370101 0.392413 0.587796 0.362211 0.343737
0.471185 0.641309 0.642161 0.538162 0.441017 0.877317 0.898872 1.81374 2.00777 2.18476
2.0827 0.959863 1.83762 0.412166 0.997302 1.48151 2.18189 1.35087 0.765901 1.80159
0.518676 2.06496 0.571859 0.52088 1.51012 0.486963 1.47499 0.603777 1.45402 0.619601
1.51558 0.622081 0.67074 1.11796 1.02847 1.7015 0.631645 0.545229 1.38332 0.870816
0.608833 0.320401 0.494194 1.10119 0.964835 0.459216 0.545675 0.463459 0.672361 1.18839
0.290238 0.41477 1.0801 0.407817 0.91448 1.8192 1.766 1.13151 0.717436 1.19342
1.31326 1.73468 1.40204 0.503665 0.559696 0.317654 0.452273 0.277792 0.23095 0.240129
0.248831 0.580836 0.619486 0.361827 0.334342 0.274457 0.879258 1.04688 0.296937 0.549149
0.586996 0.912662 0.552884 1.46127 0.543813 0.52517 0.69677 0.483351 0.634803 0.828345
0.682778 1.19867 0.828639 1.03413 0.658988 1.54023 0.388609 0.530221 1.48966 0.538905
0.559658 0.419838 0.273503 2.01733 0.864154 0.94126 0.515073 1.51323 1.18981 0.575599
1.05892 0.823351 1.18576 0.630863 1.54491 1.72291 1.76645 0.602303 1.59935 0.501585
1.02646 0.879503 0.974181 0.603274 0.578624 0.685974 0.724384 0.835541 0.894951 0.923814
1.15774 0.426344 1.45457 0.731627 0.990258 0.800934 2.06905 1.71583 1.10873 1.38276
0.73176 1.74823 1.54307 0.900914 1.01827 1.1271 0.559547 0.662617 0.560176 0.606146