# vtk DataFile Version 2.0
sampleSurface
ASCII
DATASET POLYDATA
POINTS 28203 float
-1488.34 -1520.34 1.5 -1600.36 -1520.34 1.5 -1600.36 -1600.36 1.5 -1488.34 -1600.36
1.5 -1376.31 -1520.34 1.5 -1376.31 -1600.36 1.5 -1264.29 -1520.34 1.5
-1264.29 -1600.36 1.5 -1152.26 -1520.34 1.5 -1152.26 -1600.36 1.5 -1040.23
-1520.34 1.5 -1040.23 -1600.36 1.5 -928.21 -1520.34 1.5 -928.21 -1600.36
1.5 -816.184 -1520.34 1.5 -816.184 -1600.36 1.5 -704.159 -1520.34 1.5
-704.159 -1600.36 1.5 -592.134 -1520.34 1.5 -592.134 -1600.36 1.5 -480.108
-1520.34 1.5 -480.108 -1600.36 1.5 -368.083 -1520.34 1.5 -368.083 -1600.36
1.5 -256.058 -1520.34 1.5 -256.058 -1600.36 1.5 -144.032 -1520.34 1.5
-144.032 -1600.36 1.5 -32.0071 -1520.34 1.5 -32.0071 -1600.36 1.5 80.0182
-1520.34 1.5 80.0182 -1600.36 1.5 192.044 -1520.34 1.5 192.044 -1600.36
1.5 304.069 -1520.34 1.5 304.069 -1600.36 1.5 416.094 -1520.34 1.5
416.094 -1600.36 1.5 528.119 -1520.34 1.5 528.119 -1600.36 1.5 640.145
-1520.34 1.5 640.145 -1600.36 1.5 752.17 -1520.34 1.5 752.17 -1600.36
1.5 864.195 -1520.34 1.5 864.195 -1600.36 1.5 976.221 -1520.34 1.5
976.221 -1600.36 1.5 1088.25 -1520.34 1.5 1088.25 -1600.36 1.5 1200.27
-1520.34 1.5 1200.27 -1600.36 1.5 1312.3 -1520.34 1.5 1312.3 -1600.36
1.5 1424.32 -1520.34 1.5 1424.32 -1600.36 1.5 1536.35 -1520.34 1.5
1536.35 -1600.36 1.5 1648.37 -1520.34 1.5 1648.37 -1600.36 1.5 1760.4
-1520.34 1.5 1760.4 -1600.36 1.5 1872.42 -1520.34 1.5 1872.42 -1600.36
1.5 1984.45 -1520.34 1.5 1984.45 -1600.36 1.5 2096.47 -1520.34 1.5
2096.47 -1600.36 1.5 2208.5 -1520.34 1.5 2208.5 -1600.36 1.5 2320.52
-1520.34 1.5 2320.52 -1600.36 1.5 2432.55 -1520.34 1.5 2432.55 -1600.36
1.5 2544.58 -1520.34 1.5 2544.58 -1600.36 1.5 2656.6 -1520.34 1.5
2656.6 -1600.36 1.5 2768.63 -1520.34 1.5 2768.63 -1600.36 1.5 2880.65
-1520.34 1.5 2880.65 -1600.36 1.5 2992.68 -1520.34 1.5 2992.68 -1600.36
1.5 3104.7 -1520.34 1.5 3104.7 -1600.36 1.5 3216.73 -1520.34 1.5
3216.73 -1600.36 1.5 3328.75 -1520.34 1.5 3328.75 -1600.36 1.5 3440.78
-1520.34 1.5 3440.78 -1600.36 1.5 3552.8 -1520.34 1.5 3552.8 -1600.36
1.5 3664.83 -1520.34 1.5 3664.83 -1600.36 1.5 3776.85 -1520.34 1.5
3776.85 -1600.36 1.5 3888.88 -1520.34 1.5 3888.88 -1600.36 1.5 4000.9
-1600.36 1.5 4000.9 -1520.34 1.5 -1488.34 -1440.33 1.5 -1600.36 -1440.33
1.5 -1376.31 -1440.33 1.5 -1264.29 -1440.33 1.5 -1152.26 -1440.33 1.5
-1040.23 -1440.33 1.5 -928.21 -1440.33 1.5 -816.184 -1440.33 1.5 -704.159
-1440.33 1.5 -592.134 -1440.33 1.5 -480.108 -1440.33 1.5 -368.083 -1440.33
1.5 -256.058 -1440.33 1.5 -144.032 -1440.32 1.5 -32.007 -1440.32 1.5
80.0182 -1440.32 1.5 192.044 -1440.32 1.5 304.069 -1440.32 1.5 416.094
-1440.33 1.5 528.119 -1440.33 1.5 640.145 -1440.33 1.5 752.17 -1440.33
1.5 864.195 -1440.33 1.5 976.221 -1440.33 1.5 1088.25 -1440.33 1.5
1200.27 -1440.33 1.5 1312.3 -1440.33 1.5 1424.32 -1440.33 1.5 1536.35
-1440.33 1.5 1648.37 -1440.33 1.5 1760.4 -1440.33 1.5 1872.42 -1440.33
1.5 1984.45 -1440.33 1.5 2096.47 -1440.33 1.5 2208.5 -1440.33 1.5
2320.52 -1440.33 1.5 2432.55 -1440.33 1.5 2544.58 -1440.33 1.5 2656.6
-1440.33 1.5 2768.63 -1440.33 1.5 2880.65 -1440.33 1.5 2992.68 -1440.33
1.5 3104.7 -1440.33 1.5 3216.73 -1440.33 1.5 3328.75 -1440.33 1.5
3440.78 -1440.33 1.5 3552.8 -1440.33 1.5 3664.83 -1440.33 1.5 3776.85
-1440.33 1.5 3888.88 -1440.33 1.5 4000.9 -1440.33 1.5 -1488.34 -1360.31
1.5 -1600.36 -1360.31 1.5 -1376.31 -1360.31 1.5 -1264.29 -1360.31 1.5
-1152.26 -1360.31 1.5 -1040.23 -1360.31 1.5 -928.21 -1360.31 1.5 -816.184
-1360.31 1.5 -704.159 -1360.31 1.5 -592.134 -1360.31 1.5 -480.108 -1360.31
1.5 -368.083 -1360.31 1.5 -256.058 -1360.31 1.5 -144.032 -1360.31 1.5
-32.007 -1360.31 1.5 80.0182 -1360.31 1.5 192.043 -1360.31 1.5 304.069
-1360.31 1.5 416.094 -1360.31 1.5 528.119 -1360.31 1.5 640.145 -1360.31
1.5 752.17 -1360.31 1.5 864.195 -1360.31 1.5 976.221 -1360.31 1.5
1088.25 -1360.31 1.5 1200.27 -1360.31 1.5 1312.3 -1360.31 1.5 1424.32
-1360.31 1.5 1536.35 -1360.31 1.5 1648.37 -1360.31 1.5 1760.4 -1360.31
1.5 1872.42 -1360.31 1.5 1984.45 -1360.31 1.5 2096.47 -1360.31 1.5
2208.5 -1360.31 1.5 2320.52 -1360.31 1.5 2432.55 -1360.31 1.5 2544.58
-1360.31 1.5 2656.6 -1360.31 1.5 2768.63 -1360.31 1.5 2880.65 -1360.31
1.5 2992.68 -1360.31 1.5 3104.7 -1360.31 1.5 3216.73 -1360.31 1.5
3328.75 -1360.31 1.5 3440.78 -1360.31 1.5 3552.8 -1360.31 1.5 3664.83
-1360.31 1.5 3776.85 -1360.31 1.5 3888.88 -1360.31 1.5 4000.9 -1360.31
1.5 -1488.34 -1280.29 1.5 -1600.36 -1280.29 1.5 -1376.31 -1280.29 1.5
-1264.29 -1280.29 1.5 -1152.26 -1280.29 1.5 -1040.23 -1280.29 1.5 -928.21
-1280.29 1.5 -816.184 -1280.29 1.5 -704.159 -1280.29 1.5 -592.134 -1280.29
1.5 -480.108 -1280.29 1.5 -368.083 -1280.29 1.5 -256.058 -1280.29 1.5
-144.032 -1280.29 1.5 -32.007 -1280.29 1.5 80.0182 -1280.29 1.5 192.043
-1280.29 1.5 304.069 -1280.29 1.5 416.094 -1280.29 1.5 528.119 -1280.29
1.5 640.145 -1280.29 1.5 752.17 -1280.29 1.5 864.195 -1280.29 1.5
976.221 -1280.29 1.5 1088.25 -1280.29 1.5 1200.27 -1280.29 1.5 1312.3
-1280.29 1.5 1424.32 -1280.29 1.5 1536.35 -1280.29 1.5 1648.37 -1280.29
1.5 1760.4 -1280.29 1.5 1872.42 -1280.29 1.5 1984.45 -1280.29 1.5
2096.47 -1280.29 1.5 2208.5 -1280.29 1.5 2320.52 -1280.29 1.5 2432.55
-1280.29 1.5 2544.58 -1280.29 1.5 2656.6 -1280.29 1.5 2768.63 -1280.29
1.5 2880.65 -1280.29 1.5 2992.68 -1280.29 1.5 3104.7 -1280.29 1.5
3216.73 -1280.29 1.5 3328.75 -1280.29 1.5 3440.78 -1280.29 1.5 3552.8
-1280.29 1.5 3664.83 -1280.29 1.5 3776.85 -1280.29 1.5 3888.88 -1280.29
1.5 4000.9 -1280.29 1.5 -1488.34 -1200.27 1.5 -1600.36 -1200.27 1.5
-1376.31 -1200.27 1.5 -1264.29 -1200.27 1.5 -1152.26 -1200.27 1.5 -1040.23
-1200.27 1.5 -928.21 -1200.27 1.5 -816.184 -1200.27 1.5 -704.159 -1200.27
1.5 -592.133 -1200.27 1.5 -480.108 -1200.27 1.5 -368.083 -1200.27 1.5
-256.057 -1200.27 1.5 -144.032 -1200.27 1.5 -32.007 -1200.27 1.5 80.0182
-1200.27 1.5 192.043 -1200.27 1.5 304.069 -1200.27 1.5 416.094 -1200.27
1.5 528.119 -1200.27 1.5 640.145 -1200.27 1.5 752.17 -1200.27 1.5
864.195 -1200.27 1.5 976.22 -1200.27 1.5 1088.25 -1200.27 1.5 1200.27
-1200.27 1.5 1312.3 -1200.27 1.5 1424.32 -1200.27 1.5 1536.35 -1200.27
1.5 1648.37 -1200.27 1.5 1760.4 -1200.27 1.5 1872.42 -1200.27 1.5
1984.45 -1200.27 1.5 2096.47 -1200.27 1.5 2208.5 -1200.27 1.5 2320.52
-1200.27 1.5 2432.55 -1200.27 1.5 2544.58 -1200.27 1.5 2656.6 -1200.27
1.5 2768.63 -1200.27 1.5 2880.65 -1200.27 1.5 2992.68 -1200.27 1.5
3104.7 -1200.27 1.5 3216.73 -1200.27 1.5 3328.75 -1200.27 1.5 3440.78
-1200.27 1.5 3552.8 -1200.27 1.5 3664.83 -1200.27 1.5 3776.85 -1200.27
1.5 3888.88 -1200.27 1.5 4000.9 -1200.27 1.5 -1488.34 -1120.25 1.5
-1600.36 -1120.25 1.5 -1376.31 -1120.25 1.5 -1264.29 -1120.25 1.5 -1152.26
-1120.25 1.5 -1040.23 -1120.25 1.5 -928.21 -1120.25 1.5 -816.184 -1120.25
1.5 -704.159 -1120.25 1.5 -592.133 -1120.25 1.5 -480.108 -1120.25 1.5
-368.083 -1120.25 1.5 -256.057 -1120.25 1.5 -144.032 -1120.25 1.5 -32.0069
-1120.25 1.5 80.0182 -1120.25 1.5 192.043 -1120.25 1.5 304.069 -1120.25
1.5 416.094 -1120.25 1.5 528.119 -1120.25 1.5 640.145 -1120.25 1.5
752.17 -1120.25 1.5 864.195 -1120.25 1.5 976.221 -1120.25 1.5 1088.25
-1120.25 1.5 1200.27 -1120.25 1.5 1312.3 -1120.25 1.5 1424.32 -1120.25
1.5 1536.35 -1120.25 1.5 1648.37 -1120.25 1.5 1760.4 -1120.25 1.5
1872.42 -1120.25 1.5 1984.45 -1120.25 1.5 2096.47 -1120.25 1.5 2208.5
-1120.25 1.5 2320.52 -1120.25 1.5 2432.55 -1120.25 1.5 2544.58 -1120.25
1.5 2656.6 -1120.25 1.5 2768.63 -1120.25 1.5 2880.65 -1120.25 1.5
2992.68 -1120.25 1.5 3104.7 -1120.25 1.5 3216.73 -1120.25 1.5 3328.75
-1120.25 1.5 3440.78 -1120.25 1.5 3552.8 -1120.25 1.5 3664.83 -1120.25
1.5 3776.85 -1120.25 1.5 3888.88 -1120.25 1.5 4000.9 -1120.25 1.5
-1488.34 -1040.23 1.5 -1600.36 -1040.23 1.5 -1376.31 -1040.23 1.5 -1264.29
-1040.23 1.5 -1152.26 -1040.23 1.5 -1040.23 -1040.23 1.5 -928.21 -1040.24
1.5 -984.222 -1040.24 1.5 -816.184 -1040.24 1.5 -872.197 -1040.24 1.5
-704.159 -1040.23 1.5 -760.172 -1040.24 1.5 -592.134 -1040.23 1.5 -648.146
-1040.23 1.5 -480.108 -1040.23 1.5 -536.121 -1040.23 1.5 -368.083 -1040.23
1.5 -424.096 -1040.23 1.5 -256.057 -1040.23 1.5 -312.07 -1040.23 1.5
-144.032 -1040.23 1.5 -200.045 -1040.23 1.5 -32.007 -1040.23 1.5 -88.0196
-1040.23 1.5 80.0182 -1040.23 1.5 24.0056 -1040.23 1.5 192.043 -1040.23
1.5 136.031 -1040.23 1.5 304.069 -1040.23 1.5 248.056 -1040.23 1.5
416.094 -1040.23 1.5 360.081 -1040.23 1.5 528.119 -1040.23 1.5 472.107
-1040.23 1.5 640.145 -1040.23 1.5 584.132 -1040.23 1.5 752.17 -1040.23
1.5 696.157 -1040.23 1.5 864.195 -1040.23 1.5 808.183 -1040.23 1.5
976.221 -1040.24 1.5 920.208 -1040.24 1.5 1088.25 -1040.24 1.5 1032.23
-1040.24 1.5 1200.27 -1040.23 1.5 1312.3 -1040.23 1.5 1424.32 -1040.23
1.5 1536.35 -1040.23 1.5 1648.37 -1040.23 1.5 1760.4 -1040.23 1.5
1872.42 -1040.23 1.5 1984.45 -1040.23 1.5 2096.47 -1040.23 1.5 2208.5
-1040.24 1.5 2320.52 -1040.24 1.5 2432.55 -1040.24 1.5 2544.58 -1040.24
1.5 2656.6 -1040.24 1.5 2768.63 -1040.24 1.5 2880.65 -1040.24 1.5
2992.68 -1040.24 1.5 3104.7 -1040.24 1.5 3216.73 -1040.24 1.5 3328.75
-1040.24 1.5 3440.78 -1040.24 1.5 3552.8 -1040.24 1.5 3664.83 -1040.24
1.5 3776.85 -1040.24 1.5 3888.88 -1040.24 1.5 4000.9 -1040.24 1.5
-1488.34 -960.216 1.5 -1600.36 -960.216 1.5 -1376.31 -960.216 1.5 -1264.29
-960.217 1.5 -1152.26 -960.217 1.5 -1040.24 -1000.23 1.5 -1040.23 -960.217
1.5 -984.223 -1000.23 1.5 -872.197 -1000.23 1.5 -900.204 -1000.23 1.5
-928.21 -1000.23 1.5 -760.172 -1000.23 1.5 -788.178 -1000.23 1.5 -816.185
-1000.23 1.5 -648.147 -1000.23 1.5 -676.153 -1000.23 1.5 -704.159 -1000.23
1.5 -536.121 -1000.23 1.5 -564.128 -1000.23 1.5 -592.134 -1000.23 1.5
-424.096 -1000.23 1.5 -452.102 -1000.23 1.5 -480.109 -1000.23 1.5 -312.071
-1000.23 1.5 -340.077 -1000.23 1.5 -368.083 -1000.23 1.5 -200.045 -1000.23
1.5 -228.052 -1000.23 1.5 -256.058 -1000.23 1.5 -88.0199 -1000.23 1.5
-116.026 -1000.23 1.5 -144.033 -1000.23 1.5 24.0054 -1000.23 1.5 -4.0009
-1000.23 1.5 -32.0072 -1000.23 1.5 136.031 -1000.23 1.5 108.024 -1000.23
1.5 80.0181 -1000.23 1.5 248.056 -1000.23 1.5 220.05 -1000.23 1.5
[...]
CELL_DATA 27282
FIELD attributes 2
k 1 27282 float
4.60178 3.40672 3.08783 2.93591 2.82477 2.72562 2.61517 2.5177 2.43498 2.36687 2.31062
2.26268 2.22048 2.18251 2.14775 2.11552 2.08551 2.0577 2.03223 2.00924 1.98887
1.9711 1.95582 1.94275 1.9314 1.92113 1.91129 1.90141 1.89126 1.88085 1.87032
1.85983 1.84946 1.83928 1.82932 1.81963 1.81022 1.80108 1.79223 1.78366 1.77537
1.76735 1.75957 1.75208 1.74478 1.73776 1.73111 1.72354 1.71962 1.70901 4.60177
3.40674 3.0879 2.93607 2.82496 2.72582 2.615 2.51711 2.43426 2.3663 2.31033
2.26259 2.22056 2.18269 2.14793 2.1156 2.08542 2.05741 2.03177 2.00866 1.98822
1.97046 1.95527 1.94238 1.93128 1.92126 1.91161 1.90179 1.89161 1.88112 1.87051
1.85995 1.84953 1.83931 1.82932 1.8196 1.81017 1.80102 1.79216 1.78358 1.77527
1.76725 1.75947 1.75197 1.74466 1.73764 1.73098 1.72341 1.71949 1.70886 4.60177
3.40679 3.08807 2.93637 2.82535 2.72632 2.61468 2.51584 2.4327 2.3651 2.30967
2.26244 2.22081 2.18318 2.14845 2.11596 2.08544 2.05703 2.031 2.00759 1.98696
1.96918 1.95414 1.9416 1.93101 1.92149 1.91219 1.90249 1.89223 1.88159 1.87085
1.86019 1.8497 1.83943 1.8294 1.81967 1.81022 1.80106 1.79219 1.78361 1.77531
1.76728 1.7595 1.752 1.7447 1.73767 1.73102 1.72344 1.71952 1.70891 4.60178
3.40688 3.08834 2.93688 2.82603 2.72726 2.61417 2.51379 2.43037 2.36347 2.30884
2.2623 2.2212 2.18388 2.14915 2.11633 2.08529 2.05628 2.0297 2.00588 1.985
1.96723 1.9524 1.94051 1.93079 1.92212 1.91336 1.90379 1.89331 1.88235 1.87135
1.86049 1.84985 1.83944 1.82933 1.81952 1.81001 1.80081 1.79191 1.7833 1.77498
1.76694 1.75914 1.75163 1.74432 1.73728 1.73062 1.72303 1.71911 1.70847 4.60179
3.407 3.0887 2.93767 2.82733 2.72936 2.61347 2.51029 2.42669 2.36116 2.30802
2.2627 2.22251 2.18567 2.15087 2.11751 2.0855 2.05543 2.02794 2.00344 1.98218
1.96431 1.94989 1.9387 1.93022 1.92278 1.91491 1.90558 1.89481 1.88343 1.87213
1.86108 1.8503 1.8398 1.82962 1.81976 1.81023 1.801 1.79209 1.78347 1.77514
1.76709 1.7593 1.75179 1.74447 1.73744 1.73077 1.72318 1.71925 1.70863 4.6018
3.40714 3.08911 2.93863 2.82921 2.73357 2.61347 2.50633 2.42285 2.35917 2.30783
2.26406 2.22515 2.18906 2.15427 2.12012 2.08687 2.05545 2.02674 2.00133 1.97949
1.96136 1.94746 1.93798 1.93106 1.92485 1.91778 1.9084 1.89697 1.88496 1.87322
1.86189 1.8509 1.84025 1.82996 1.82004 1.81045 1.8012 1.79226 1.78363 1.77529
1.76723 1.75943 1.75192 1.7446 1.73756 1.73088 1.72327 1.71933 1.70866 4.60181
3.40718 3.08929 2.93981 2.83166 2.74099 2.609 2.49735 2.41804 2.36017 2.31298
2.27191 2.23459 2.19889 2.16314 2.12659 2.09062 2.05682 2.02655 2.00034 1.97864
1.96127 1.94827 1.94287 1.94066 1.93703 1.93021 1.91906 1.90543 1.89189 1.8792
1.86715 1.85554 1.84436 1.83363 1.82332 1.8134 1.80387 1.79469 1.78584 1.77731
1.76908 1.76113 1.75348 1.74604 1.73888 1.73211 1.72437 1.72041 1.70963 4.60184
3.40696 3.08753 2.94518 2.74017 2.51232 2.48914 2.45587 2.41622 2.38425 2.35366
2.32481 2.29623 2.26585 2.2322 2.19545 2.15763 2.12189 2.09083 2.0653 2.04465
2.02921 2.0267 2.00178 2.16431 2.11009 2.04155 1.99683 1.96495 1.94097 1.92152
1.90446 1.88889 1.87451 1.86116 1.84866 1.83689 1.82577 1.81521 1.80515 1.79555
1.78638 1.77757 1.76914 1.76099 1.75319 1.74585 1.73746 1.73318 1.72151 4.60187
3.40701 3.08789 2.94661 2.74916 2.47414 2.46552 2.37656 2.26504 2.14715 2.07625
2.02847 1.99397 1.96703 1.94422 1.92407 1.90598 1.88957 1.87452 1.86059 1.84761
1.83545 1.824 1.81318 1.80293 1.79318 1.7839 1.77499 1.76649 1.75855 1.74947
1.7449 1.73241 4.60189 3.40717 3.08844 2.94778 2.75496 2.48859 2.47914 2.38441
2.27086 2.15086 2.07866 2.02979 1.99446 1.96693 1.94366 1.9231 1.90465 1.88793
1.8726 1.85841 1.8452 1.83283 1.82119 1.8102 1.7998 1.7899 1.7805 1.77147
1.76284 1.75484 1.74559 1.74103 1.7283 4.6019 3.40728 3.0888 2.94851 2.75754
2.49146 2.47121 2.38159 2.27018 2.15137 2.07959 2.03034 1.99441 1.96645 1.94291
1.9222 1.90367 1.88692 1.87161 1.85746 1.84431 1.83201 1.82045 1.80955 1.79922
1.78939 1.78005 1.77109 1.76252 1.75455 1.74535 1.74079 1.72818 4.60188 3.40731
3.08891 2.94872 2.75764 2.49118 2.46338 2.37895 2.27013 2.15216 2.08066 2.03117
1.99476 1.96629 1.94228 1.9211 1.90215 1.88504 1.86942 1.85504 1.84168 1.8292
1.8175 1.80647 1.79604 1.78613 1.77673 1.76773 1.75911 1.75114 1.74188 1.73736
1.72464 4.60185 3.40728 3.0888 2.94847 2.7562 2.48914 2.45442 2.3738 2.26641
2.14932 2.07838 2.02915 1.99291 1.96462 1.94079 1.91981 1.90103 1.88408 1.86861
1.85434 1.84107 1.82868 1.81705 1.80606 1.79567 1.78578 1.77639 1.76737 1.75876
1.75075 1.74148 1.73691 1.72419 4.60186 3.4072 3.0885 2.94792 2.7537 2.48596
2.44144 2.36397 2.25935 2.14423 2.07395 2.0243 1.9872 1.95808 1.93359 1.91207
1.89288 1.87561 1.8599 1.84547 1.83211 1.81968 1.80805 1.7971 1.78677 1.77697
1.76768 1.75878 1.75027 1.74241 1.73327 1.72883 1.71633 4.60187 3.40708 3.08808
2.94715 2.75054 2.48201 2.41713 2.34118 2.23174 2.12117 2.05473 2.00738 1.97168
1.94357 1.91995 1.89922 1.88075 1.86415 1.84907 1.83522 1.82242 1.81051 1.79936
1.78889 1.77901 1.76965 1.76078 1.75231 1.74419 1.73672 1.72806 1.72376 1.71188
4.60188 3.40694 3.0876 2.94629 2.74703 2.47756 2.41808 2.38022 2.29097 2.18952
2.13131 2.09158 2.06254 2.03972 2.02029 2.0029 1.98709 1.97261 1.95917 1.94654
1.93458 1.92321 1.91234 1.90192 1.89189 1.88222 1.87289 1.86384 1.85506 1.84678
1.83738 1.83215 1.8192 4.60189 3.4068 3.08712 2.94541 2.74354 2.47297 3.30419
2.84064 2.68396 2.47938 2.33732 2.2368 2.16395 2.10852 2.06377 2.02626 1.99428
1.96664 1.94244 1.92098 1.90174 1.88435 1.8685 1.85395 1.84052 1.82803 1.8164
1.80543 1.79515 1.78561 1.77517 1.76952 1.75515 4.60189 3.40668 3.0867 2.94463
2.7406 2.46871 1.74847 1.94745 1.89243 1.82763 1.77982 1.74213 1.7137 1.69197
1.67417 1.6589 1.64565 1.63406 1.62381 1.61464 1.60637 1.59884 1.59194 1.58558
1.57966 1.57413 1.56896 1.56406 1.55941 1.55522 1.55014 1.54797 1.541 4.60186
3.40653 3.08641 2.94402 2.73845 2.46534 1.91163 2.19232 2.07901 1.9652 1.8996
1.8519 1.81571 1.78779 1.76499 1.74555 1.72874 1.71406 1.70108 1.68944 1.67888
1.66923 1.66033 1.65207 1.64436 1.63711 1.63029 1.62382 1.61765 1.61204 1.60541
1.6023 1.59341 4.60181 3.40647 3.08627 2.94371 2.73748 2.46348 1.96533 1.99503
1.94443 1.89201 1.86835 1.85232 1.84064 1.83208 1.82495 1.81832 1.81203 1.80601
1.80014 1.79438 1.78867 1.78301 1.77739 1.7718 1.76626 1.76075 1.75531 1.74985
1.74455 1.73926 1.73347 1.73002 1.72141 4.6018 3.40651 3.08629 2.94376 2.73787
2.46349 3.01289 2.60908 2.50263 2.36683 2.27947 2.21675 2.17033 2.13464 2.10532
2.08 2.05765 2.0377 2.01965 2.00313 1.98788 1.97368 1.96038 1.94784 1.93598
1.92469 1.91395 1.90364 1.89376 1.88448 1.87429 1.8683 1.85448 4.6018 3.40658
3.08652 2.94419 2.7396 2.46537 2.34554 2.20785 2.13279 2.04316 1.98577 1.94469
1.91446 1.8911 1.87161 1.85454 1.83938 1.82581 1.81352 1.80226 1.79185 1.78216
1.77309 1.76455 1.75647 1.74879 1.74149 1.73445 1.72779 1.72143 1.71442 1.71064
1.70062 4.6018 3.40668 3.08691 2.94493 2.74237 2.46889 1.1032 2.22215 2.28305
2.183 2.07542 2.01157 1.96661 1.93292 1.90632 1.88387 1.86412 1.8465 1.83065
1.81623 1.80297 1.7907 1.77926 1.76856 1.75849 1.74899 1.73997 1.73142 1.72321
1.71539 1.70813 1.69976 1.69564 1.68425 4.60183 3.40686 3.08742 2.94586 2.74585
2.47341 2.76496 2.49093 2.37629 2.24401 2.16316 2.10611 2.06328 2.02938 2.0008
1.97574 1.95341 1.93337 1.91518 1.89851 1.8831 1.86879 1.85543 1.84288 1.83105
1.81986 1.80926 1.79912 1.78946 1.78051 1.77021 1.76509 1.75091 4.60187 3.40704
3.08796 2.94688 2.74964 2.47831 2.35171 2.31455 2.21344 2.10631 2.03955 1.99207
1.95671 1.92903 1.90577 1.88536 1.86717 1.85085 1.83603 1.82243 1.80985 1.79813
1.78717 1.77687 1.76714 1.75791 1.74917 1.74079 1.73278 1.72539 1.71676 1.71259
1.70082 4.60187 3.40719 3.08848 2.94784 2.75324 2.48302 2.40067 2.3381 2.23245
2.11969 2.05161 2.00415 1.96899 1.94144 1.91822 1.89777 1.87948 1.863 1.84796
1.83412 1.82127 1.80928 1.79804 1.78744 1.77741 1.76788 1.75883 1.75015 1.74184
1.73415 1.72517 1.72083 1.70854 4.60185 3.40731 3.0889 2.94862 2.75628 2.48719
2.46422 2.375 2.26818 2.15091 2.07968 2.02991 1.99301 1.96409 1.93975 1.91833
1.89923 1.88201 1.86633 1.8519 1.83852 1.82604 1.81434 1.80332 1.79291 1.78302
1.77363 1.76462 1.75602 1.74804 1.73878 1.73424 1.72156 4.60185 3.40739 3.08917
2.94915 2.75852 2.49056 2.47335 2.38152 2.27363 2.15497 2.08277 2.03264 1.99578
1.96707 1.94296 1.92178 1.90287 1.88582 1.87025 1.85591 1.8426 1.83016 1.81849
1.80748 1.79707 1.78717 1.77777 1.76874 1.76012 1.7521 1.74282 1.73826 1.72552
4.60188 3.40741 3.08925 2.94931 2.75961 2.4929 2.47774 2.38467 2.27496 2.15547
2.08294 2.03287 1.99627 1.96781 1.94393 1.92295 1.90419 1.88725 1.87178 1.85752
1.84426 1.83187 1.82022 1.80924 1.79884 1.78896 1.77956 1.77055 1.76193 1.75392
1.74465 1.74009 1.72739 4.6019 3.40737 3.08908 2.94901 2.75912 2.49376 2.4802
2.38588 2.27385 2.15388 2.08129 2.03152 1.99528 1.96709 1.94339 1.92254 1.90389
1.88705 1.87166 1.85745 1.84422 1.83186 1.82024 1.80927 1.79889 1.78901 1.77963
1.77063 1.76201 1.75402 1.74477 1.74021 1.7275 4.60188 3.40723 3.08866 2.94817
2.75615 2.49213 2.48391 2.38789 2.27393 2.15292 2.08 2.03062 1.99496 1.96723
1.94385 1.92325 1.90481 1.88812 1.87284 1.8587 1.84554 1.83321 1.82163 1.81068
1.80032 1.79045 1.78108 1.77208 1.76347 1.75547 1.74624 1.74167 1.72901 4.60186
3.40706 3.08804 2.94687 2.74991 2.48487 2.48316 2.38022 2.26825 2.14934 2.07778
2.02955 1.99473 1.96756 1.94459 1.92432 1.90614 1.88965 1.87452 1.86053 1.84749
1.83527 1.82377 1.81291 1.80262 1.79282 1.7835 1.77455 1.766 1.75803 1.7489
1.74432 1.73172 4.60184 3.40699 3.08764 2.94534 2.74067 2.45024 2.2666 2.32045
2.32512 2.31381 2.29521 2.27358 2.2501 2.22459 2.19701 2.16763 2.13773 2.10899
2.08245 2.0587 2.0379 2.02026 2.00335 2.26324 2.16801 2.11349 2.04413 1.99881
1.96649 1.94218 1.92249 1.90525 1.88955 1.87507 1.86166 1.84912 1.83734 1.8262
1.81563 1.80557 1.79597 1.7868 1.778 1.76958 1.76143 1.75363 1.74629 1.73791
1.73363 1.722 4.60181 3.40718 3.08933 2.93989 2.83175 2.74108 2.60873 2.49643
2.4162 2.35683 2.30776 2.26459 2.22523 2.18818 2.1524 2.11776 2.08479 2.05424
2.02671 2.00246 1.98164 1.9645 1.95139 1.94582 1.94328 1.93929 1.93214 1.92064
1.90668 1.89286 1.87997 1.86775 1.85601 1.84474 1.83392 1.82355 1.81359 1.80401
1.79479 1.7859 1.77734 1.76908 1.76109 1.75341 1.74593 1.73874 1.73194 1.72417
1.72018 1.70933 4.60179 3.40713 3.08911 2.93862 2.82912 2.73335 2.61292 2.50525
2.42101 2.35628 2.3036 2.25828 2.21788 2.18078 2.14585 2.11265 2.08128 2.0521
2.02547 2.00162 1.98077 1.96306 1.94932 1.93985 1.93277 1.9263 1.91894 1.90926
1.89758 1.88533 1.87341 1.86192 1.85081 1.84006 1.82971 1.81972 1.81009 1.8008
1.79184 1.78319 1.77483 1.76677 1.75896 1.75143 1.7441 1.73706 1.73038 1.72276
1.71883 1.70818 4.60178 3.40698 3.08866 2.93758 2.82715 2.72888 2.61261 2.5089
2.4246 2.35804 2.30385 2.25733 2.21603 2.17849 2.14365 2.11099 2.08042 2.0521
2.02628 2.00313 1.98278 1.9655 1.95127 1.94019 1.93164 1.92403 1.91595 1.90641
1.89542 1.88385 1.87238 1.86119 1.8503 1.83971 1.82945 1.81954 1.80995 1.80069
1.79174 1.7831 1.77475 1.76668 1.75886 1.75133 1.744 1.73695 1.73027 1.72265
1.71872 1.70806 4.60177 3.40685 3.08827 2.93673 2.82579 2.7266 2.6131 2.51217
2.42808 2.36031 2.30472 2.25722 2.2153 2.17747 2.14274 2.11051 2.08056 2.05293
2.02773 2.0051 1.98513 1.96792 1.95346 1.94172 1.93202 1.92326 1.91435 1.90461
1.89395 1.88281 1.87165 1.86066 1.8499 1.8394 1.82921 1.81933 1.80977 1.80053
1.79159 1.78296 1.77461 1.76655 1.75874 1.75122 1.74389 1.73685 1.73018 1.72258
1.71866 1.70801 4.60176 3.40675 3.08798 2.93618 2.82506 2.72553 2.61345 2.51408
2.43029 2.36192 2.30562 2.25759 2.21531 2.1773 2.14261 2.11061 2.08102 2.05379
2.02896 2.00662 1.98685 1.96963 1.95499 1.94266 1.93211 1.92254 1.91312 1.90327
1.89285 1.88204 1.87115 1.86036 1.84976 1.83938 1.82928 1.81948 1.80997 1.80077
1.79187 1.78326 1.77493 1.76688 1.75908 1.75157 1.74425 1.73721 1.73054 1.72295
1.71902 1.70839 4.60176 3.4067 3.08779 2.93586 2.82464 2.72495 2.61368 2.51526
2.43178 2.36312 2.30637 2.25793 2.21532 2.17713 2.14242 2.11055 2.08118 2.05422
2.02965 2.00754 1.9879 1.97073 1.95595 1.94329 1.93227 1.92224 1.91251 1.90257
1.89224 1.88159 1.87084 1.86015 1.84962 1.8393 1.82924 1.81945 1.80996 1.80076
1.79186 1.78325 1.77492 1.76687 1.75907 1.75156 1.74424 1.7372 1.73054 1.72295
1.71902 1.70839 4.60177 3.40668 3.08771 2.93568 2.82443 2.72471 2.61379 2.51581
2.43248 2.36368 2.30671 2.25808 2.21536 2.17711 2.14241 2.11062 2.08137 2.05453
2.03008 2.00806 1.98848 1.97132 1.95645 1.94361 1.93236 1.92208 1.91217 1.90218
1.89188 1.88132 1.87065 1.86003 1.84955 1.83927 1.82924 1.81948 1.81 1.80082
1.79193 1.78334 1.77501 1.76697 1.75918 1.75167 1.74435 1.73732 1.73065 1.72307
1.71914 1.70852 0.925289 0.163692 0.528651 0.343366 0.29824 1.42736 2.1237 1.17601
1.13119 1.09586 2.07573 0.492829 1.07496 0.526139 0.31243 0.444825 0.569882 1.02503
1.05631 1.68004 0.609321 1.14791 1.3334 1.74359 0.829353 0.587535 0.600993 1.30994
0.810528 1.00514 2.32878 2.34595 0.997508 1.57776 0.975228 2.38593 1.37468 2.2312
2.01612 1.05997 1.8641 1.45542 1.77551 0.481093 0.202588 0.347284 0.274973 0.423221
0.224565 0.937908 0.701167 2.00257 0.648639 0.621032 1.93406 0.52042 1.23964 1.78423
0.956062 1.97203 0.288144 0.475905 0.808724 0.863778 0.369333 0.430033 0.654942 0.786689
0.497093 1.11118 1.1567 1.25191 0.97479 0.404829 1.26622 0.694314 0.901731 1.27602
0.846477 0.924297 0.489281 0.78894 1.09163 0.406226 0.491817 0.477694 1.00767 0.818811
0.349394 1.26829 0.688954 1.11673 1.00012 1.87969 1.04325 0.76991 0.565491 0.930877
1.63442 1.41833 2.01265 1.2122 1.1236 0.547169 0.814886 0.993526 2.19347 0.89218
1.27789 2.17861 1.21151 0.574008 0.939767 0.939196 0.704081 0.580268 0.507156 0.803198
0.504987 0.736772 0.495037 1.9252 1.63236 0.767168 0.134722 0.141752 0.132903 0.169521
0.11199 0.29808 0.173167 0.301267 0.15864 1.06106 0.73464 1.00599 1.32373 1.08743
1.2518 1.04163 0.437258 0.3968 0.345003 0.328647 0.150891 1.92496 1.65591 1.14343
1.71787 1.12184 0.824431 0.629797 0.636683 1.14976 0.913676 1.23525 0.310827 1.0312
0.867132 0.689659 1.81085 1.36995 1.32628 0.419881 0.443475 0.425039 0.380721 0.493243
0.325814 0.258601 1.334 0.52679 0.566817 1.18146 1.33231 1.54457 0.324288 1.41292
0.825306 0.465892 0.689438 1.47598 0.553509 1.51602 0.730685 0.334072 1.53352 1.8815
1.8456 1.10041 0.704581 0.684321 2.07653 0.547711 1.97631 0.672194 0.630459 0.555939
0.354858 0.812267 0.637114 0.350257 0.529545 0.260779 0.431177 0.317084 1.51647 1.64335
1.83408 0.942566 1.06187 0.481082 0.465551 0.556174 0.654083 0.995818 0.528193 0.510659
1.08677 1.10934 0.837061 0.583351 1.24049 1.04379 1.34651 1.11485 1.19705 0.783269
0.706704 0.820684 0.88685 1.24465 0.582857 0.629276 0.714788 0.239319 0.228082 0.136035
0.757123 0.462784 0.301558 1.43256 0.735226 1.05874 0.71786 0.315641 0.253485 0.461632
0.70542 0.447019 1.02007 0.477092 0.199547 1.44311 1.26102 1.26099 0.803746 0.631392
1.13529 0.588114 1.32675 1.05074 0.854867 0.321533 0.995694 0.335143 0.776945 1.27555
0.384441 1.48503 1.24342 1.49028 1.16139 0.777953 0.712619 1.2666 0.712018 0.910031
1.5691 1.1773 1.4112 1.43189 1.38232 0.817502 0.366953 0.689968 1.15724 0.770836
1.30168 2.16204 1.34262 2.05326 1.27306 1.1908 1.04933 1.30352 0.982358 0.794393
1.7922 1.42483 1.06055 1.21757 1.18562 1.26081 1.16216 0.679492 0.424903 2.2012
0.451688 0.368035 1.1113 2.20256 1.12338 2.02575 1.06473 0.776218 1.93905 0.953362
1.64311 1.41731 1.52511 0.811266 0.566891 0.698503 1.17194 1.15931 2.38675 2.51593
1.16282 0.973246 0.931592 0.954366 0.455363 1.00639 1.52304 1.47006 2.15452 1.40914
2.30027 1.64869 1.37889 1.33772 1.53529 1.10846 2.16024 2.23436 0.937228 0.608027
0.548222 2.69717 2.78147 2.71854 2.80351 1.78884 0.0394058 0.894605 1.10637 0.784451
0.635162 1.18439 0.88349 0.1772 0.475392 0.646819 0.328069 0.764825 0.175871 0.298922
0.641498 0.693068 0.789847 0.382401 0.224233 0.354157 0.905563 0.352313 0.655036 0.0907011
0.426054 0.283216 0.160728 0.922732 0.643394 0.118656 0.21544 0.856374 0.182695 1.88358
1.98975 1.16768 2.02067 1.28088 2.20673 1.52411 1.33163 1.18139 2.02904 0.346411
0.592733 0.269933 0.556698 0.488917 0.497207 0.388098 1.28823 0.528265 1.29771 0.230617
0.377005 0.522392 0.558304 1.77441 1.19353 1.66251 1.25248 2.00013 1.83122 1.95107
2.07263 0.984411 0.525508 1.07803 0.650563 1.99159 0.949617 1.80192 0.881462 0.341224
0.292094 1.60607 1.50274 1.74927 1.51023 0.530276 0.624765 0.392604 1.5067 1.65863
0.953374 0.640431 2.51787 2.56898 2.43895 2.59923 0.850832 0.876164 0.910493 0.920824
1.38327 0.59077 0.832467 0.71157 1.20799 1.35918 0.73037 0.950262 0.500905 0.580976
0.46161 1.38809 0.387048 0.725477 1.20735 1.30314 0.703983 0.852474 0.354972 0.45133
0.52008 0.439801 1.42876 1.8341 1.26735 1.36027 1.50831 1.31794 0.939551 0.255043
0.787171 1.73387 0.408972 1.21171 0.892957 0.405725 0.46325 0.544065 0.834498 0.570173
0.762264 1.57203 1.05407 1.54661 1.18861 1.78145 0.917617 0.270289 0.481408 0.890979
0.296036 0.662368 0.315309 1.52104 0.453258 1.13986 0.437394 2.08042 1.6937 2.07005
1.61945 1.3226 1.37801 2.21401 1.85261 1.95315 1.8193 1.94301 1.02345 2.04325
2.22427 2.35078 2.0114 0.543316 0.367643 0.73994 1.50446 0.801866 1.10318 1.49695
1.9553 1.13997 1.39318 0.646065 0.83189 2.18107 0.791129 2.02946 1.34418 1.88018
0.885482 2.0425 1.23886 1.4291 0.954506 1.14302 1.7326 2.06428 0.652231 1.76588
1.47832 1.40522 0.369559 1.40863 1.50026 1.13288 1.98848 1.29125 1.48721 0.868272
1.60885 1.01985 1.70885 0.515958 0.56333 1.18151 1.14659 0.431776 0.865724 1.15597
0.512808 0.528177 2.16685 1.22246 2.16479 1.18798 0.870403 0.647977 0.541276 1.06413
2.68858 2.90762 1.68689 1.7626 2.92402 2.42164 1.04391 1.99376 1.87172 1.11809
2.15114 0.736575 0.985486 0.76067 1.71359 1.5132 0.709491 1.04151 2.07948 2.19251
2.1561 2.15848 1.8784 1.92921 0.991378 2.05152 1.21786 1.15442 1.46696 1.43432
1.50613 2.46056 2.32469 2.26305 2.37893 1.68329 1.15252 1.50906 1.2808 1.17704
1.03314 0.999652 1.0958 1.06836 1.15375 1.01653 2.24815 2.00674 2.2114 0.821846
0.98279 2.13867 0.956088 2.16435 0.888318 1.40211 0.992679 2.06652 0.917179 1.07793
1.58296 1.66164 2.07884 1.08763 2.15447 0.773724 1.21483 0.890849 0.615229 1.51851
1.19227 1.76384 0.548646 0.561929 0.665586 0.847534 0.947696 0.347692 0.486681 1.06713
0.589042 1.5221 0.534458 1.47921 0.891968 0.877056 0.70437 0.819004 1.35376 0.604004
0.516217 0.746006 0.753376 0.698533 0.364917 0.723311 0.261837 0.655126 0.329103 0.353964
0.728826 0.443154 0.181289 0.134423 0.211777 0.12034 0.191452 0.129649 0.537992 0.173309
0.197806 0.188279 1.82391 1.93282 1.97424 0.982659 1.97447 1.5811 2.05153 2.0499
1.85221 0.755472 0.720382 0.638499 0.432352 1.45454 1.06131 0.620547 0.833288 0.556893
0.877773 0.403544 0.412988 0.289023 0.308584 0.56825 0.52114 1.12841 1.11774 0.658663
1.20674 0.566972 0.606909 0.572833 0.618775 1.57611 0.663628 0.655629 0.200427 0.805819
0.199124 0.505215 1.3083 0.56074 1.40195 0.678162 0.407868 0.46735 1.6273 2.02177
1.38419 1.52256 1.42261 1.29006 0.241628 1.43013 0.608665 0.560842 0.45294 0.586356
0.452048 0.468401 0.812873 1.34644 1.36196 0.709704 0.685527 0.469067 0.298179 0.551244
1.11779 1.56106 0.867191 0.497606 0.561152 0.495956 0.16251 0.541855 0.610874 0.164968
1.1969 0.472348 0.266388 0.253633 1.13293 0.521794 0.602484 0.401599 0.911099 0.75476
0.675119 0.919492 0.674976 0.650784 0.715564 0.863085 1.20921 0.856532 1.01843 0.647963
0.45785 0.753156 0.746054 0.365555 0.590558 1.58259 1.03635 0.605195 0.825216 0.728581
1.42907 1.30313 1.10337 0.426173 0.617277 1.03609 0.709122 0.659157 0.243727 1.16835
1.22851 1.74329 1.90775 0.95398 1.18631 1.96401 1.23798 1.82504 1.27013 0.408354
1.00852 0.175655 0.313481 0.471587 0.509357 0.430145 0.510878 0.286011 0.488515 0.326195
0.46177 0.411989 0.276659 0.467492 0.359501 0.383017 0.589482 0.297169 0.322891 0.494151
0.38956 0.332097 0.44169 0.610633 0.478797 0.435939 0.426711 0.306183 0.401972 0.481064
0.81893 0.744626 1.6091 0.427072 0.489795 0.435905 0.288176 0.784879 0.547179 1.02778
0.527974 0.611982 1.07786 0.380965 0.486472 0.442812 0.984099 0.679283 1.48734 0.408211