# vtk DataFile Version 2.0
sampleSurface
ASCII
DATASET POLYDATA
POINTS 10479 float
-1324.23 -1350.14 10 -1423.91 -1350.14 10 -1423.91 -1421.2 10 -1324.23 -1421.2
10 -1224.56 -1350.14 10 -1224.56 -1421.2 10 -1124.89 -1350.14 10
-1124.89 -1421.2 10 -1025.21 -1350.14 10 -1025.21 -1421.2 10 -925.54
-1350.14 10 -925.54 -1421.2 10 -825.867 -1350.14 10 -825.867 -1421.2
10 -726.193 -1350.14 10 -726.193 -1421.2 10 -626.52 -1350.14 10
-626.52 -1421.2 10 -526.846 -1350.14 10 -526.846 -1421.2 10 -427.173
-1350.14 10 -427.173 -1421.2 10 -327.499 -1350.14 10 -327.499 -1421.2
10 -227.826 -1350.14 10 -227.826 -1421.2 10 -128.152 -1350.14 10
-128.152 -1421.2 10 -28.4787 -1350.14 10 -28.4787 -1421.2 10 71.1948
-1350.14 10 71.1948 -1421.2 10 170.868 -1350.14 10 170.868 -1421.2
10 270.542 -1350.14 10 270.542 -1421.2 10 370.215 -1350.14 10
370.216 -1421.2 10 469.889 -1350.14 10 469.889 -1421.2 10 569.563
-1350.14 10 569.563 -1421.2 10 669.236 -1350.14 10 669.236 -1421.2
10 768.91 -1350.14 10 768.91 -1421.2 10 868.583 -1350.14 10
868.583 -1421.2 10 968.257 -1350.14 10 968.257 -1421.2 10 1067.93
-1350.14 10 1067.93 -1421.2 10 1167.6 -1350.14 10 1167.6 -1421.2
10 1267.28 -1350.14 10 1267.28 -1421.2 10 1366.95 -1350.14 10
1366.95 -1421.2 10 1466.62 -1350.14 10 1466.62 -1421.2 10 1566.3
-1350.14 10 1566.3 -1421.2 10 1665.97 -1350.14 10 1665.97 -1421.2
10 1765.65 -1350.14 10 1765.65 -1421.2 10 1865.32 -1350.14 10
1865.32 -1421.2 10 1964.99 -1350.14 10 1964.99 -1421.2 10 2064.67
-1350.14 10 2064.67 -1421.2 10 2164.34 -1350.14 10 2164.34 -1421.2
10 2264.01 -1350.14 10 2264.01 -1421.2 10 2363.69 -1350.14 10
2363.69 -1421.2 10 2463.36 -1350.14 10 2463.36 -1421.2 10 2563.03
-1350.14 10 2563.03 -1421.2 10 2662.71 -1350.14 10 2662.71 -1421.2
10 2762.38 -1350.14 10 2762.38 -1421.2 10 2862.06 -1350.14 10
2862.06 -1421.2 10 2961.73 -1350.14 10 2961.73 -1421.2 10 3061.4
-1350.14 10 3061.4 -1421.2 10 3161.08 -1350.14 10 3161.08 -1421.2
10 3260.75 -1350.14 10 3260.75 -1421.2 10 3360.42 -1350.14 10
3360.42 -1421.2 10 3460.1 -1350.14 10 3460.1 -1421.2 10 3559.77
-1421.2 10 3559.77 -1350.14 10 -1324.23 -1279.08 10 -1423.91 -1279.08
10 -1224.56 -1279.08 10 -1124.89 -1279.08 10 -1025.21 -1279.08 10
-925.54 -1279.08 10 -825.867 -1279.08 10 -726.193 -1279.08 10 -626.52
-1279.08 10 -526.846 -1279.08 10 -427.173 -1279.08 10 -327.499 -1279.08
10 -227.826 -1279.08 10 -128.152 -1279.08 10 -28.4787 -1279.08 10
71.1948 -1279.08 10 170.868 -1279.08 10 270.542 -1279.08 10 370.215
-1279.08 10 469.889 -1279.08 10 569.563 -1279.08 10 669.236 -1279.08
10 768.91 -1279.08 10 868.583 -1279.08 10 968.257 -1279.08 10
1067.93 -1279.08 10 1167.6 -1279.08 10 1267.28 -1279.08 10 1366.95
-1279.08 10 1466.62 -1279.08 10 1566.3 -1279.08 10 1665.97 -1279.08
10 1765.65 -1279.08 10 1865.32 -1279.08 10 1964.99 -1279.08 10
2064.67 -1279.08 10 2164.34 -1279.08 10 2264.01 -1279.08 10 2363.69
-1279.08 10 2463.36 -1279.08 10 2563.03 -1279.08 10 2662.71 -1279.08
10 2762.38 -1279.08 10 2862.06 -1279.08 10 2961.73 -1279.08 10
3061.4 -1279.08 10 3161.08 -1279.08 10 3260.75 -1279.08 10 3360.42
-1279.08 10 3460.1 -1279.08 10 3559.77 -1279.08 10 -1324.23 -1208.02
10 -1423.91 -1208.02 10 -1224.56 -1208.02 10 -1124.89 -1208.02 10
-1025.21 -1208.02 10 -925.54 -1208.02 10 -825.867 -1208.02 10 -726.193
-1208.02 10 -626.52 -1208.02 10 -526.846 -1208.02 10 -427.173 -1208.02
10 -327.499 -1208.02 10 -227.826 -1208.02 10 -128.152 -1208.02 10
-28.4788 -1208.02 10 71.1947 -1208.02 10 170.868 -1208.02 10 270.542
-1208.02 10 370.215 -1208.02 10 469.889 -1208.02 10 569.563 -1208.02
10 669.236 -1208.02 10 768.91 -1208.02 10 868.583 -1208.02 10
968.257 -1208.02 10 1067.93 -1208.02 10 1167.6 -1208.02 10 1267.28
-1208.02 10 1366.95 -1208.02 10 1466.62 -1208.02 10 1566.3 -1208.02
10 1665.97 -1208.02 10 1765.65 -1208.02 10 1865.32 -1208.02 10
1964.99 -1208.02 10 2064.67 -1208.02 10 2164.34 -1208.02 10 2264.01
-1208.02 10 2363.69 -1208.02 10 2463.36 -1208.02 10 2563.03 -1208.02
10 2662.71 -1208.02 10 2762.38 -1208.02 10 2862.06 -1208.02 10
2961.73 -1208.02 10 3061.4 -1208.02 10 3161.08 -1208.02 10 3260.75
-1208.02 10 3360.42 -1208.02 10 3460.1 -1208.02 10 3559.77 -1208.02
10 -1324.23 -1136.96 10 -1423.91 -1136.96 10 -1224.56 -1136.96 10
-1124.89 -1136.96 10 -1025.21 -1136.96 10 -925.54 -1136.96 10 -825.867
-1136.96 10 -726.193 -1136.96 10 -626.52 -1136.96 10 -526.846 -1136.96
10 -427.173 -1136.96 10 -327.499 -1136.96 10 -227.826 -1136.96 10
-128.152 -1136.96 10 -28.4788 -1136.96 10 71.1947 -1136.96 10 170.868
-1136.96 10 270.542 -1136.96 10 370.215 -1136.96 10 469.889 -1136.96
10 569.563 -1136.96 10 669.236 -1136.96 10 768.91 -1136.96 10
868.583 -1136.96 10 968.257 -1136.96 10 1067.93 -1136.96 10 1167.6
-1136.96 10 1267.28 -1136.96 10 1366.95 -1136.96 10 1466.62 -1136.96
10 1566.3 -1136.96 10 1665.97 -1136.96 10 1765.65 -1136.96 10
1865.32 -1136.96 10 1964.99 -1136.96 10 2064.67 -1136.96 10 2164.34
-1136.96 10 2264.01 -1136.96 10 2363.69 -1136.96 10 2463.36 -1136.96
10 2563.03 -1136.96 10 2662.71 -1136.96 10 2762.38 -1136.96 10
2862.06 -1136.96 10 2961.73 -1136.96 10 3061.4 -1136.96 10 3161.08
-1136.96 10 3260.75 -1136.96 10 3360.42 -1136.96 10 3460.1 -1136.96
10 3559.77 -1136.96 10 -1324.23 -1065.9 10 -1423.91 -1065.9 10
-1224.56 -1065.9 10 -1124.89 -1065.9 10 -1025.21 -1065.9 10 -925.54
-1065.9 10 -825.867 -1065.9 10 -726.193 -1065.9 10 -626.52 -1065.9
10 -526.846 -1065.9 10 -427.173 -1065.9 10 -327.499 -1065.9 10
-227.826 -1065.9 10 -128.152 -1065.9 10 -28.4788 -1065.9 10 71.1946
-1065.9 10 170.868 -1065.9 10 270.542 -1065.9 10 370.215 -1065.9
10 469.889 -1065.9 10 569.563 -1065.9 10 669.236 -1065.9 10
768.91 -1065.9 10 868.583 -1065.9 10 968.257 -1065.9 10 1067.93
-1065.9 10 1167.6 -1065.9 10 1267.28 -1065.9 10 1366.95 -1065.9
10 1466.62 -1065.9 10 1566.3 -1065.9 10 1665.97 -1065.9 10
1765.65 -1065.9 10 1865.32 -1065.9 10 1964.99 -1065.9 10 2064.67
-1065.9 10 2164.34 -1065.9 10 2264.01 -1065.9 10 2363.69 -1065.9
10 2463.36 -1065.9 10 2563.03 -1065.9 10 2662.71 -1065.9 10
2762.38 -1065.9 10 2862.06 -1065.9 10 2961.73 -1065.9 10 3061.4
-1065.9 10 3161.08 -1065.9 10 3260.75 -1065.9 10 3360.42 -1065.9
10 3460.1 -1065.9 10 3559.77 -1065.9 10 -1324.23 -994.838 10
-1423.91 -994.838 10 -1224.56 -994.838 10 -1124.89 -994.838 10 -1025.21
-994.838 10 -925.54 -994.838 10 -825.867 -994.838 10 -726.193 -994.838
10 -626.52 -994.838 10 -526.846 -994.838 10 -427.173 -994.838 10
-327.499 -994.837 10 -227.826 -994.837 10 -128.152 -994.836 10 -28.4788
-994.836 10 71.1945 -994.836 10 170.868 -994.836 10 270.542 -994.836
10 370.215 -994.837 10 469.889 -994.837 10 569.563 -994.838 10
669.236 -994.838 10 768.91 -994.838 10 868.584 -994.838 10 968.257
-994.838 10 1067.93 -994.838 10 1167.6 -994.838 10 1267.28 -994.838
10 1366.95 -994.838 10 1466.62 -994.839 10 1566.3 -994.839 10
1665.97 -994.839 10 1765.65 -994.839 10 1865.32 -994.839 10 1964.99
-994.839 10 2064.67 -994.839 10 2164.34 -994.839 10 2264.01 -994.839
10 2363.69 -994.839 10 2463.36 -994.839 10 2563.03 -994.839 10
2662.71 -994.839 10 2762.38 -994.839 10 2862.06 -994.839 10 2961.73
-994.839 10 3061.4 -994.839 10 3161.08 -994.839 10 3260.75 -994.839
10 3360.42 -994.839 10 3460.1 -994.839 10 3559.77 -994.839 10
-1324.23 -923.778 10 -1423.91 -923.778 10 -1224.56 -923.778 10 -1124.89
-923.778 10 -1025.21 -923.778 10 -925.54 -923.779 10 -825.867 -923.779
10 -875.703 -923.779 10 -726.193 -923.779 10 -776.03 -923.779 10
-626.52 -923.778 10 -676.356 -923.779 10 -526.846 -923.778 10 -576.683
-923.778 10 -427.172 -923.778 10 -477.009 -923.778 10 -327.499 -923.777
10 -377.336 -923.778 10 -227.825 -923.776 10 -277.662 -923.777 10
-128.152 -923.776 10 -177.989 -923.776 10 -28.4788 -923.776 10 -78.3154
-923.776 10 71.1946 -923.776 10 21.3579 -923.776 10 170.868 -923.776
10 121.031 -923.776 10 270.542 -923.776 10 220.705 -923.776 10
370.216 -923.777 10 320.379 -923.776 10 469.889 -923.778 10 420.052
-923.778 10 569.563 -923.778 10 519.726 -923.778 10 669.237 -923.778
10 619.4 -923.778 10 768.91 -923.779 10 719.073 -923.778 10
868.584 -923.779 10 818.747 -923.779 10 968.257 -923.779 10 1067.93
-923.779 10 1167.6 -923.778 10 1267.28 -923.778 10 1366.95 -923.779
10 1466.62 -923.779 10 1566.3 -923.779 10 1665.97 -923.779 10
1765.64 -923.779 10 1865.32 -923.779 10 1964.99 -923.779 10 2064.67
-923.779 10 2164.34 -923.779 10 2264.01 -923.779 10 2363.69 -923.779
10 2463.36 -923.779 10 2563.03 -923.779 10 2662.71 -923.779 10
2762.38 -923.779 10 2862.06 -923.779 10 2961.73 -923.779 10 3061.4
-923.779 10 3161.08 -923.779 10 3260.75 -923.779 10 3360.42 -923.779
10 3460.1 -923.779 10 3559.77 -923.779 10 -1324.23 -852.718 10
-1423.91 -852.718 10 -1224.56 -852.718 10 -1124.89 -852.718 10 -1025.21
-852.718 10 -925.54 -888.249 10 -925.54 -852.719 10 -875.703 -888.249
10 -776.03 -888.249 10 -825.867 -888.249 10 -676.356 -888.249 10
-726.193 -888.249 10 -576.683 -888.249 10 -626.52 -888.249 10 -477.009
-888.249 10 -526.846 -888.249 10 -377.336 -888.249 10 -427.172 -888.249
10 -277.662 -888.249 10 -327.499 -888.249 10 -177.989 -888.248 10
-227.825 -888.248 10 -78.315 -888.248 10 -128.152 -888.248 10 21.3584
-888.248 10 -28.4783 -888.248 10 121.032 -888.248 10 71.1952 -888.248
10 220.706 -888.248 10 170.869 -888.248 10 320.379 -888.249 10
270.543 -888.248 10 420.053 -888.249 10 370.216 -888.249 10 519.726
-888.249 10 469.889 -888.249 10 619.4 -888.249 10 569.563 -888.249
10 719.073 -888.249 10 669.237 -888.249 10 818.747 -888.249 10
768.91 -888.249 10 968.257 -852.719 10 918.421 -852.719 10 868.584
-852.719 10 868.584 -888.249 10 1067.93 -852.719 10 1167.6 -852.718
10 1267.28 -852.718 10 1366.95 -852.719 10 1466.62 -852.719 10
1566.3 -852.719 10 1665.97 -852.719 10 1765.64 -852.719 10 1865.32
-852.719 10 1964.99 -852.719 10 2064.67 -852.719 10 2164.34 -852.719
10 2264.01 -852.719 10 2363.69 -852.719 10 2463.36 -852.719 10
2563.03 -852.719 10 2662.71 -852.719 10 2762.38 -852.719 10 2862.06
-852.719 10 2961.73 -852.719 10 3061.4 -852.719 10 3161.08 -852.719
[...]
CELL_DATA 9835
FIELD attributes 2
k 1 9835 float
3.58794 2.52309 2.35078 2.30499 2.27061 2.23477 2.19711 2.16021 2.1254 2.09289 2.06293
2.03559 2.01061 1.98776 1.96672 1.9472 1.9289 1.91162 1.89518 1.87952 1.86463
1.85053 1.83728 1.82492 1.8135 1.80301 1.79341 1.78458 1.77638 1.76865 1.76126
1.75413 1.74721 1.74045 1.73385 1.72739 1.72107 1.71488 1.70883 1.7029 1.69711
1.69145 1.68591 1.68051 1.67522 1.67005 1.66508 1.65991 1.65591 1.6482 3.58792
2.52308 2.35077 2.30498 2.27062 2.23482 2.1972 2.16029 2.12541 2.09283 2.06283
2.03547 2.01051 1.98769 1.9667 1.94722 1.92895 1.91166 1.89521 1.87951 1.86457
1.85042 1.83712 1.82473 1.81328 1.80281 1.79324 1.78446 1.77632 1.76864 1.76128
1.75416 1.74724 1.74048 1.73388 1.72741 1.72108 1.71489 1.70882 1.70289 1.69709
1.69142 1.68588 1.68047 1.67518 1.67 1.66503 1.65985 1.65585 1.64813 3.58792
2.52308 2.35076 2.30498 2.27065 2.23492 2.1974 2.16047 2.12546 2.09271 2.0626
2.0352 2.01027 1.98752 1.96663 1.94725 1.92906 1.91181 1.89532 1.87955 1.86451
1.85024 1.83684 1.82435 1.81286 1.80238 1.79287 1.7842 1.77616 1.76856 1.76125
1.75416 1.74726 1.74051 1.7339 1.72744 1.7211 1.71491 1.70884 1.70291 1.69711
1.69144 1.68589 1.68048 1.6752 1.67002 1.66505 1.65988 1.65587 1.64816 3.58792
2.52307 2.35075 2.30498 2.2707 2.23509 2.19775 2.16079 2.12556 2.09258 2.06235
2.03493 2.01004 1.98741 1.96666 1.94741 1.92929 1.91204 1.89548 1.87958 1.86439
1.84996 1.83641 1.82381 1.81225 1.8018 1.79241 1.78392 1.77606 1.76857 1.76133
1.75426 1.74736 1.7406 1.73397 1.72748 1.72112 1.7149 1.70881 1.70285 1.69703
1.69133 1.68577 1.68034 1.67504 1.66985 1.66486 1.65968 1.65566 1.64793 3.58792
2.52307 2.35074 2.30496 2.2707 2.23533 2.19844 2.16146 2.12581 2.09241 2.06197
2.03452 2.00975 1.98734 1.96686 1.94786 1.92992 1.91268 1.89599 1.87986 1.86439
1.84968 1.83587 1.8231 1.81139 1.8009 1.79161 1.78336 1.77576 1.76847 1.76133
1.75432 1.74745 1.7407 1.73408 1.72759 1.72123 1.715 1.70891 1.70295 1.69713
1.69144 1.68588 1.68046 1.67516 1.66997 1.66499 1.65981 1.6558 1.64807 3.58792
2.52306 2.35075 2.30494 2.27061 2.2354 2.19937 2.16266 2.12673 2.09305 2.06249
2.03506 2.01043 1.98825 1.96808 1.94934 1.93152 1.91422 1.89734 1.88094 1.86516
1.85012 1.83597 1.82294 1.81127 1.80086 1.7917 1.78367 1.77631 1.76917 1.76211
1.75513 1.74825 1.74149 1.73485 1.72833 1.72194 1.71569 1.70957 1.70359 1.69774
1.69203 1.68645 1.68101 1.6757 1.6705 1.6655 1.66031 1.65628 1.64853 3.58792
2.52308 2.35079 2.30497 2.27071 2.23534 2.20175 2.16513 2.12814 2.09364 2.06298
2.0359 2.01192 1.99064 1.97146 1.9536 1.93613 1.9187 1.9013 1.88417 1.86759
1.85183 1.83723 1.82344 1.81145 1.80149 1.79321 1.78613 1.77937 1.77245 1.76537
1.75829 1.75127 1.74435 1.73752 1.73082 1.72425 1.71783 1.71155 1.70541 1.69943
1.69359 1.68789 1.68234 1.67692 1.67162 1.66653 1.66125 1.65715 1.64928 3.58793
2.52309 2.35136 2.30305 2.30189 2.36259 2.2918 2.23859 2.19328 2.15668 2.12646
2.1008 2.07872 2.05922 2.04112 2.023 2.00394 1.98351 1.96237 1.9417 1.92238
1.90454 1.88594 1.77407 1.82157 1.83949 1.83825 1.83173 1.82134 1.81046 1.79976
1.78952 1.77981 1.77057 1.76174 1.75329 1.74519 1.73741 1.72993 1.72273 1.71578
1.70908 1.7026 1.69634 1.69028 1.68439 1.67877 1.67297 1.66849 1.65995 3.58793
2.52312 2.35134 2.30335 2.29963 2.38605 2.23863 2.02984 1.95395 1.91617 1.89334
1.8769 1.86374 1.85283 1.84344 1.83534 1.82588 1.81278 1.79611 1.77769 1.75926
1.74173 1.72607 1.78389 1.86773 1.90276 1.89956 1.88742 1.87078 1.85436 1.83894
1.82478 1.81174 1.79967 1.78843 1.77791 1.76801 1.75867 1.74981 1.74138 1.73335
1.72567 1.71831 1.71125 1.70446 1.69791 1.69169 1.6853 1.68037 1.67106 3.58793
2.52312 2.35134 2.30328 2.29959 2.38506 2.24293 2.02735 1.94838 1.91115 1.88924
1.87359 1.86128 1.85149 1.84385 1.83734 1.8293 1.81731 1.80165 1.78455 1.76775
1.75204 1.73765 1.7924 1.87151 1.90636 1.90259 1.8896 1.87243 1.85554 1.83971
1.82517 1.81179 1.7994 1.78786 1.77707 1.76693 1.75736 1.7483 1.7397 1.73151
1.72369 1.71622 1.70907 1.7022 1.69558 1.6893 1.68286 1.6779 1.66855 3.58793
2.52312 2.35133 2.30325 2.29958 2.38541 2.24553 2.03098 1.95076 1.91209 1.8892
1.873 1.86054 1.85125 1.84545 1.84226 1.83689 1.82446 1.80637 1.78676 1.76809
1.75111 1.73574 1.78774 1.86847 1.90327 1.89957 1.88685 1.87008 1.85356 1.83802
1.8237 1.81048 1.79821 1.78675 1.77601 1.7659 1.75634 1.74728 1.73866 1.73044
1.72259 1.71508 1.70787 1.70094 1.69426 1.68792 1.68142 1.6764 1.66694 3.58793
2.52312 2.35133 2.30325 2.29958 2.38553 2.24647 2.03232 1.95133 1.91154 1.88774
1.87087 1.85791 1.84854 1.84454 1.84712 1.84671 1.83312 1.81075 1.78746 1.76637
1.74786 1.73146 1.7815 1.86421 1.8989 1.89535 1.88291 1.86637 1.84992 1.83433
1.81989 1.80653 1.79414 1.78257 1.77173 1.76155 1.75195 1.74287 1.73425 1.72605
1.71823 1.71076 1.7036 1.69674 1.69013 1.68387 1.67744 1.67249 1.66316 3.58793
2.52312 2.35134 2.30326 2.29954 2.38544 2.24665 2.03258 1.95103 1.91036 1.88567
1.86797 1.85385 1.8425 1.83866 1.85212 1.86147 1.8445 1.81477 1.78677 1.76325
1.74361 1.72677 1.77507 1.85908 1.89385 1.89044 1.87841 1.86249 1.84664 1.8315
1.81737 1.80419 1.79186 1.78029 1.76937 1.75906 1.7493 1.74003 1.73122 1.72282
1.7148 1.70713 1.69978 1.69273 1.68594 1.67952 1.67293 1.66786 1.65831 3.58792
2.5231 2.35134 2.30328 2.29947 2.38517 2.24642 2.03236 1.95027 1.90876 1.88316
1.86454 1.84868 1.83111 1.81773 1.85367 1.88504 1.85746 1.81407 1.77868 1.7513
1.72952 1.71144 1.75312 1.83929 1.87272 1.86831 1.85473 1.83782 1.82128 1.80579
1.79152 1.77842 1.76629 1.75501 1.74446 1.73457 1.72525 1.71645 1.70811 1.70018
1.69264 1.68543 1.67855 1.67195 1.6656 1.6596 1.65344 1.6487 1.63978 3.58793
2.5231 2.35135 2.30327 2.29935 2.38477 2.24595 2.03186 1.94927 1.90687 1.88026
1.86083 1.84386 1.81538 1.76279 1.85518 1.91931 1.85972 1.79737 1.75706 1.72902
1.70791 1.69109 1.7318 1.83788 1.87386 1.87391 1.868 1.85713 1.84542 1.83349
1.82199 1.81096 1.8004 1.79029 1.78065 1.77145 1.76268 1.75432 1.74634 1.73873
1.73147 1.72451 1.71786 1.71148 1.70533 1.6995 1.69356 1.68896 1.6803 3.58792
2.5231 2.35135 2.30325 2.29918 2.38425 2.24535 2.03122 1.94807 1.90461 1.87657
1.85615 1.84165 1.8202 1.81479 1.84576 1.78442 1.75603 1.73849 1.72751 1.72071
1.82688 2.04909 2.10572 2.11299 2.10562 2.09007 2.07232 2.05414 2.03646 2.0196
2.00353 1.98826 1.97374 1.9599 1.94671 1.93411 1.92206 1.91052 1.89945 1.88881
1.87859 1.86875 1.85923 1.85017 1.84092 1.83383 1.82005 3.58791 2.52309 2.35132
2.30319 2.29897 2.3837 2.24476 2.03061 1.94691 1.9021 1.87171 1.83282 1.55574
1.51905 1.60248 1.76296 1.89531 1.98646 2.04547 1.83974 1.52271 1.58937 1.59744
1.59462 1.58886 1.58303 1.57794 1.57397 1.57106 1.56896 1.5675 1.56651 1.56587
1.56546 1.5652 1.56503 1.56488 1.56471 1.56451 1.56424 1.5639 1.56349 1.56296
1.56237 1.56174 1.56028 3.58791 2.52307 2.35129 2.30312 2.29872 2.38314 2.24428
2.03016 1.94597 1.89951 1.77637 1.85411 1.80657 2.13693 1.72378 1.77388 1.90049
1.97478 1.99294 1.97626 1.96923 1.78065 1.80661 1.79542 1.77161 1.74545 1.71921
1.69443 1.6718 1.65122 1.63253 1.61557 1.60016 1.58614 1.57336 1.56167 1.55095
1.5411 1.53202 1.52363 1.51585 1.50863 1.50186 1.49569 1.48944 1.48485 1.4765
3.58786 2.52304 2.35125 2.30306 2.29852 2.38265 2.24395 2.02992 1.94546 1.89745
1.85128 1.81822 1.6746 1.82449 1.81821 1.5271 1.2436 1.18479 1.17188 1.17109
1.36232 1.6637 1.69523 1.68638 1.6657 1.64174 1.6177 1.59512 1.57443 1.55567
1.53863 1.52319 1.5092 1.4965 1.48495 1.47443 1.46481 1.45597 1.44785 1.44037
1.43346 1.42709 1.42112 1.41573 1.41025 1.40629 1.39914 3.5878 2.52303 2.3512
2.30298 2.29837 2.38233 2.24385 2.02996 1.94574 1.9004 1.85963 1.63983 1.52551
1.59351 1.05888 0.913028 0.940005 0.991737 1.02362 0.90777 1.26544 1.34205 1.37157
1.38865 1.40128 1.41115 1.41937 1.42662 1.43313 1.439 1.44428 1.44904 1.45334
1.45723 1.46073 1.46389 1.46673 1.46927 1.47153 1.47352 1.47526 1.47679 1.47807
1.47926 1.48 1.48095 3.58785 2.52301 2.3512 2.30294 2.29835 2.38233 2.24395
2.03002 1.94604 1.9053 1.97334 0.857731 1.61266 1.77097 1.8594 1.92733 2.08806
2.0199 2.07756 2.09377 2.09197 2.08416 2.07183 2.05888 2.0461 2.03379 2.02201
2.01072 1.9999 1.98953 1.97955 1.96996 1.96069 1.95173 1.94306 1.93466 1.9265
1.91857 1.91084 1.90338 1.89576 1.88976 1.87807 3.5879 2.52301 2.35121 2.30298
2.2985 2.38271 2.2442 2.02984 1.94548 1.90228 1.88655 1.65131 1.66078 1.45068
1.78992 1.70576 1.72807 1.71319 1.7409 1.7501 1.76414 1.7772 1.86897 1.88749
1.93837 1.95291 1.95609 1.95472 1.95058 1.94457 1.93808 1.93133 1.92442 1.91741
1.91038 1.90338 1.89642 1.88953 1.88273 1.87602 1.86941 1.86291 1.85652 1.85023
1.84406 1.83804 1.83186 1.82697 1.81735 3.5879 2.52304 2.35123 2.30302 2.29874
2.38332 2.24457 2.02967 1.9445 1.89622 1.85193 1.69968 1.89049 2.44414 1.51556
1.85537 1.61993 1.59154 1.63 1.65855 1.67302 1.67887 1.79676 1.86977 1.90843
1.90586 1.89456 1.87855 1.86262 1.84736 1.83324 1.82013 1.8079 1.79647 1.78575
1.77566 1.76615 1.75717 1.74865 1.74056 1.73286 1.72552 1.71851 1.7118 1.70535
1.69925 1.69303 1.68821 1.67918 3.58791 2.52305 2.35124 2.30309 2.29901 2.38405
2.24506 2.02975 1.94439 1.89556 1.85376 1.80399 1.82058 1.66313 1.59438 2.10693
1.91384 1.78142 1.71239 1.69188 1.67793 1.66769 1.65975 1.77131 1.87985 1.91709
1.91506 1.90483 1.88974 1.87451 1.85968 1.84571 1.83254 1.8201 1.80833 1.79717
1.78657 1.7765 1.76692 1.75778 1.74906 1.74073 1.73274 1.72509 1.71775 1.71066
1.70395 1.69707 1.69178 1.6818 3.58791 2.52306 2.35126 2.30315 2.29926 2.38476
2.24567 2.0302 1.94529 1.89839 1.86444 1.83879 2.03593 1.79796 1.81222 1.84068
1.85585 1.8272 1.80226 1.77819 1.75584 1.73604 1.77107 1.84326 1.87936 1.87676
1.86591 1.8508 1.83574 1.8213 1.80786 1.79532 1.78362 1.77266 1.76235 1.75263
1.74344 1.73473 1.72645 1.71857 1.71105 1.70385 1.69695 1.69033 1.68395 1.6779
1.67169 1.66691 1.65789 3.58792 2.52307 2.35127 2.30319 2.29946 2.38537 2.24632
2.03093 1.94686 1.90213 1.87297 1.85368 1.58108 1.75932 1.82181 1.83419 1.81347
1.78922 1.76644 1.7455 1.7264 1.76863 1.84223 1.8773 1.87433 1.86295 1.84739
1.83185 1.81704 1.80327 1.79048 1.77856 1.76738 1.75687 1.74697 1.73762 1.72875
1.72033 1.71231 1.70466 1.69734 1.69034 1.68362 1.67715 1.67103 1.66475 1.65992
1.65084 3.58792 2.52307 2.35127 2.30321 2.29961 2.38585 2.24696 2.03177 1.94861
1.90564 1.87901 1.86158 1.85217 1.84519 1.81624 1.86562 1.84998 1.82775 1.80333
1.77993 1.75899 1.7401 1.72272 1.77397 1.85528 1.89055 1.88753 1.87587 1.8598
1.84373 1.8284 1.81416 1.80093 1.78861 1.77708 1.76627 1.7561 1.74649 1.7374
1.72878 1.72058 1.71276 1.7053 1.69815 1.6913 1.6847 1.67845 1.67205 1.66712
1.65784 3.58792 2.52307 2.35128 2.30323 2.2997 2.38615 2.24741 2.03252 1.95021
1.90858 1.88337 1.86655 1.85547 1.84737 1.84182 1.84949 1.84265 1.82578 1.80626
1.78656 1.76797 1.75066 1.73434 1.78499 1.86285 1.89849 1.89541 1.88355 1.86727
1.85105 1.83563 1.82136 1.80816 1.79588 1.78442 1.77368 1.76356 1.75402 1.74497
1.73638 1.72819 1.72038 1.71291 1.70576 1.69889 1.69226 1.68599 1.67955 1.67458
1.66522 3.58792 2.52308 2.35128 2.30324 2.29973 2.38622 2.24755 2.03297 1.95147
1.91096 1.88671 1.87017 1.85839 1.84982 1.84426 1.84174 1.83395 1.81989 1.80315
1.78574 1.76874 1.75255 1.73698 1.78847 1.86596 1.9015 1.89826 1.88614 1.86961
1.85316 1.83755 1.82313 1.80979 1.79743 1.78589 1.77508 1.76491 1.75533 1.74625
1.73763 1.72942 1.7216 1.71411 1.70694 1.70006 1.69343 1.68715 1.68071 1.67574
1.66639 3.58792 2.52308 2.35129 2.30323 2.29972 2.38604 2.24719 2.03291 1.95223
1.91276 1.88926 1.87286 1.8605 1.85089 1.84335 1.83665 1.82745 1.81459 1.79954
1.78368 1.76789 1.75259 1.73773 1.79008 1.86792 1.90329 1.8998 1.88729 1.87046
1.85379 1.83807 1.82359 1.81025 1.79789 1.78638 1.77561 1.76551 1.75597 1.74695
1.73838 1.73023 1.72244 1.715 1.70787 1.70103 1.69443 1.68817 1.68176 1.67681
1.66748 3.58792 2.52309 2.35131 2.30327 2.29971 2.38555 2.24584 2.03158 1.95201
1.91386 1.89116 1.87492 1.86208 1.85142 1.84218 1.83326 1.82301 1.81059 1.79657
1.78184 1.76703 1.75257 1.73846 1.79214 1.87024 1.90566 1.90208 1.8893 1.87212
1.85517 1.83927 1.82468 1.81128 1.79889 1.78738 1.77661 1.76651 1.75699 1.74797
1.73941 1.73125 1.72347 1.71603 1.7089 1.70205 1.69544 1.68918 1.68276 1.67781
1.66848 3.58792 2.5231 2.35131 2.30334 2.29972 2.38508 2.24238 2.02733 1.94929
1.91269 1.89073 1.87453 1.86119 1.84957 1.83897 1.82859 1.81751 1.80516 1.79173
1.77775 1.76368 1.74988 1.73642 1.79136 1.86646 1.902 1.89895 1.88696 1.87031
1.85384 1.83834 1.82409 1.81097 1.79884 1.78755 1.77699 1.76707 1.75771 1.74885
1.74042 1.7324 1.72474 1.7174 1.71037 1.70362 1.6971 1.69091 1.68457 1.67968
1.67044 3.58792 2.52308 2.35133 2.30303 2.30196 2.38036 2.21287 2.11771 2.07097
2.03948 2.0146 1.99328 1.97458 1.95788 1.94236 1.92721 1.9118 1.89592 1.87969
1.86345 1.84755 1.83197 1.81526 1.77209 1.82054 1.83887 1.83777 1.8314 1.82103
1.81011 1.79936 1.78908 1.77932 1.77004 1.7612 1.75275 1.74466 1.7369 1.72944
1.72227 1.71536 1.70869 1.70225 1.69603 1.69001 1.68415 1.67857 1.6728 1.66834
1.65985 3.58791 2.52306 2.35077 2.30497 2.27076 2.23546 2.20202 2.16553 2.12864
2.09418 2.06334 2.03585 2.01119 1.98885 1.96831 1.949 1.9305 1.91263 1.89536
1.87877 1.86296 1.848 1.83408 1.82086 1.80938 1.7998 1.79178 1.78487 1.7782
1.77131 1.76424 1.75714 1.75011 1.74316 1.73632 1.72961 1.72304 1.71661 1.71034
1.70422 1.69825 1.69243 1.68675 1.68122 1.67583 1.67055 1.66549 1.66024 1.65617
1.64836 3.58791 2.52305 2.35073 2.30494 2.27065 2.23547 2.19952 2.16286 2.12693
2.0932 2.06248 2.03474 2.00958 1.98666 1.96557 1.94588 1.92727 1.90953 1.89257
1.87637 1.86098 1.84639 1.83269 1.82005 1.80871 1.79858 1.78964 1.78177 1.77451
1.76742 1.76038 1.75341 1.74653 1.73977 1.73312 1.7266 1.72022 1.71398 1.70787
1.70191 1.69609 1.69041 1.68487 1.67946 1.67418 1.66901 1.66405 1.6589 1.6549
1.64721 3.58791 2.52305 2.35073 2.30496 2.27071 2.23538 2.19851 2.16154 2.12585
2.09236 2.0617 2.03393 2.00868 1.98562 1.96437 1.94459 1.92598 1.90831 1.89149
1.87548 1.8603 1.84596 1.83253 1.8201 1.80872 1.7985 1.78943 1.78134 1.77385
1.76663 1.75954 1.75255 1.74569 1.73895 1.73233 1.72584 1.71949 1.71328 1.7072
1.70126 1.69546 1.6898 1.68426 1.67887 1.6736 1.66844 1.66349 1.65834 1.65436
1.64668 3.58791 2.52306 2.35074 2.30497 2.27071 2.23512 2.19777 2.16078 2.12547
2.09237 2.06192 2.03417 2.00883 1.98563 1.96423 1.94431 1.92564 1.90799 1.89127
1.87541 1.86039 1.84624 1.833 1.8207 1.80943 1.79924 1.79007 1.78175 1.77401
1.76662 1.75944 1.75241 1.74553 1.73879 1.73218 1.7257 1.71936 1.71315 1.70708
1.70115 1.69535 1.68968 1.68415 1.67876 1.67349 1.66834 1.66338 1.65824 1.65425
1.64658 3.58792 2.52307 2.35076 2.30497 2.27065 2.23493 2.19738 2.16039 2.12528
2.09239 2.06205 2.03432 2.00895 1.98569 1.96422 1.94426 1.92557 1.90795 1.89129
1.87552 1.86062 1.84659 1.83345 1.82126 1.81004 1.79981 1.79051 1.782 1.77409
1.76659 1.75934 1.7523 1.74542 1.73869 1.7321 1.72565 1.71933 1.71315 1.7071
1.70119 1.69541 1.68977 1.68425 1.67887 1.67362 1.66847 1.66353 1.6584 1.65442
1.64676 3.58792 2.52307 2.35077 2.30498 2.27061 2.23482 2.19715 2.16017 2.12518
2.09244 2.06219 2.03451 2.00914 1.98583 1.96431 1.94429 1.92557 1.90795 1.89132
1.8756 1.86076 1.8468 1.83374 1.82161 1.81042 1.80018 1.79081 1.78221 1.7742
1.76662 1.75933 1.75227 1.74538 1.73865 1.73206 1.72562 1.71931 1.71313 1.70709
1.70118 1.6954 1.68976 1.68424 1.67886 1.67361 1.66847 1.66352 1.65839 1.65441
1.64675 3.58794 2.52308 2.35077 2.30498 2.2706 2.23476 2.19705 2.16006 2.12514
2.09246 2.06226 2.0346 2.00921 1.98589 1.96434 1.94431 1.92557 1.90796 1.89135
1.87566 1.86086 1.84694 1.83391 1.82181 1.81064 1.80038 1.79098 1.78232 1.77426
1.76663 1.75932 1.75224 1.74535 1.73862 1.73204 1.7256 1.7193 1.71313 1.70709
1.70119 1.69542 1.68978 1.68427 1.6789 1.67365 1.66851 1.66357 1.65844 1.65446
1.64681 1.74443 2.04359 1.77811 1.53559 1.6802 1.88837 2.12813 1.29339 1.45254
2.31311 2.03115 2.1583 1.54424 1.70918 1.78953 1.64878 1.97036 1.56644 2.34333
1.70718 0.875672 1.07258 0.89413 1.14145 0.869326 1.91393 0.940012 0.935661 0.678577
0.592756 1.01467 1.13681 1.0274 1.32489 1.16132 1.69912 1.1359 1.38297 1.86472
1.77248 1.66541 1.66343 1.69535 2.17402 1.83005 1.89708 1.23629 1.87105 1.36617
1.63591 1.59085 1.70477 1.7742 1.79226 1.91291 1.76143 1.83324 1.8261 1.90021
1.77355 1.57134 2.00976 1.72432 1.60915 1.98525 0.591591 0.51964 1.79865 1.71573
2.37586 1.68546 1.69807 1.76209 1.83473 1.74658 1.41132 1.48341 1.82884 1.8438
1.73231 1.19792 1.35241 1.52637 1.42599 1.36763 1.76101 1.78214 2.01133 1.8728
1.90434 1.92598 1.64961 1.67361 1.55355 1.75225 1.52331 1.56151 0.915616 0.878282
0.668878 1.92331 1.90676 1.89652 1.95562 1.54555 1.63908 0.685601 1.85796 1.70059
1.44562 1.51435 1.3674 1.372 1.68353 1.8033 2.36099 2.05828 1.81811 1.79919
1.80118 1.79616 1.26185 1.65828 3.03444 2.04163 1.82926 1.94012 1.32326 1.88702
1.64245 1.96184 1.80735 1.76662 1.55364 1.38227 1.75714 1.81915 1.88203 1.94907
2.33618 1.94991 2.61276 2.68903 3.4414 1.31791 0.660238 1.45317 1.76719 1.91931
1.67739 2.47487 2.34477 2.93551 1.69379 1.40882 1.5951 1.46113 1.70629 1.96727
2.05601 1.74847 2.14585 0.370912 1.82389 0.58637 2.94692 1.33678 1.9411 1.56995
1.2484 1.96679 1.69408 1.5792 1.50953 1.80847 1.31333 1.17436 1.45672 1.44444
1.58214 1.56481 0.333473 1.35393 1.11601 1.34325 1.38034 1.35899 1.35558 1.26215
1.34337 0.937834 1.15024 1.09269 1.95846 1.80744 1.95103 0.900826 1.15008 2.04524
2.21871 2.07717 1.30597 2.43317 1.38904 1.50318 1.98856 1.44556 2.62469 1.88404
2.53613 1.60599 1.64696 1.64696 2.56088 2.00022 1.78794 1.74973 2.15254 2.45389
0.262237 0.307628 1.52267 1.64265 1.43561 1.90035 1.61143 0.52584 0.360621 1.26817
2.18725 2.16847 1.76941 1.85346 1.89815 1.76982 1.79611 1.79611 1.63195 1.644
1.61306 1.99514 1.23525 1.2699 1.19732 1.31135 1.41811 2.01809 1.67405 1.00276
0.99331 1.10116 1.27958 1.63302 1.45279 1.50735 1.63924 1.48001 1.44074 1.33404
1.60428 1.43418 1.63547 0.92271 1.07869 2.42038 2.86476 0.935558 1.29379 1.60372
1.85006 2.17325 2.02002 2.07133 0.833943 1.58907 1.55131 1.99567 1.90553 2.00778
1.60438 1.65887 2.14198 1.45623 1.97274 1.56256 2.18109 2.08897 1.9975 2.00961
3.0729 2.70346 1.79137 2.5066 1.73803 1.81436 2.00658 1.71419 2.36055 2.3632
2.33131 2.08035 2.60907 2.34017 2.29599 1.35775 1.23193 1.3861 2.03175 2.34061
2.40374 1.85504 1.6216 1.5065 1.79204 1.52627 2.47027 2.82888 2.33462 2.11298
2.75039 1.83462 1.81001 1.87407 1.92841 1.87194 1.96209 1.77397 1.82667 1.43112
1.66882 1.93266 1.84095 1.4839 1.71079 1.70068 1.69325 1.9904 1.98368 1.66965
1.58117 1.59962 1.68151 1.57191 1.6131 0.805883 2.07058 1.80246 1.76541 2.02614
1.75319 2.83688 1.80823 2.18779 1.72822 1.91542 0.886941 0.908867 1.55704 0.82951
1.5238 0.965472 0.815758 1.11198 1.39681 0.419547 1.70403 1.26328 2.07524 1.43684
1.78935 2.25285 1.51938 2.58726 2.33747 2.81762 2.2849 1.1512 1.03289 1.58698
0.475799 1.96626 1.83293 1.61512 1.71337 1.89143 1.79091 1.77916 1.67682 2.4873
2.4873 2.39189 2.39189 2.43237 2.745 2.21194 2.30241 2.26473 2.95354 2.45776
1.96587 1.20903 1.46053 0.945284 1.45023 1.48104 2.43217 1.99115 2.90484 1.72727
1.7122 1.73282 1.7095 0.936719 2.39586 2.27872 1.17256 1.51956 1.4193 1.53117
1.34112 1.50563 1.65678 1.72397 2.04916 1.30251 2.16541 1.77847 1.2941 1.2692
1.72206 1.65733 1.31137 1.80547 1.36123 1.96875 1.53805 1.75893 2.12682 1.0792
1.09481 1.06529 0.646124 1.11497 0.927184 1.16563 0.916793 0.949229 0.960761 1.05971
0.885147 1.03858 1.27471 1.83228 1.16603 1.24602 1.92991 1.71786 1.51109 0.383503
1.01861 0.724022 1.11697 2.77909 2.56084 1.8543 0.637534 1.09814 0.627781 1.07278
2.85412 1.22469 2.39948 2.38663 2.34259 1.19806 1.95014 1.17824 2.02386 2.03545
1.81577 1.88139 1.97723 1.87569 1.92085 1.31702 1.75678 1.64466 1.7094 1.70293
1.65638 1.65791 1.73814 1.86906 1.86493 1.50911 2.00395 2.07368 2.04621 1.53208
1.53208 1.81867 1.81867 0.677351 0.898986 2.73329 1.67036 1.93339 1.6366 1.6366
1.4297 1.50353 1.88734 1.09032 1.83673 2.15131 1.90677 1.76547 2.07204 2.07204
1.48589 1.47372 1.31191 1.56412 1.24404 1.94829 1.99489 1.96142 1.78723 1.76195
1.18727 1.04459 1.91556 3.04508 3.34784 1.93989 1.71477 1.38372 1.8485 1.59561